+ 1 0 2 tcp 40 ------- 1 0.0 1.0 0 0
- 1 0 2 tcp 40 ------- 1 0.0 1.0 0 0
r 1.01016 0 2 tcp 40 ------- 1 0.0 1.0 0 0
+ 1.01016 2 1 tcp 40 ------- 1 0.0 1.0 0 0
- 1.01016 2 1 tcp 40 ------- 1 0.0 1.0 0 0
r 1.02032 2 1 tcp 40 ------- 1 0.0 1.0 0 0
+ 1.02032 1 2 ack 40 ------- 1 1.0 0.0 0 1
- 1.02032 1 2 ack 40 ------- 1 1.0 0.0 0 1
r 1.03048 1 2 ack 40 ------- 1 1.0 0.0 0 1
+ 1.03048 2 0 ack 40 ------- 1 1.0 0.0 0 1
- 1.03048 2 0 ack 40 ------- 1 1.0 0.0 0 1
r 1.04064 2 0 ack 40 ------- 1 1.0 0.0 0 1
+ 1.04064 0 2 tcp 1040 ------- 1 0.0 1.0 1 2
- 1.04064 0 2 tcp 1040 ------- 1 0.0 1.0 1 2
+ 1.04064 0 2 tcp 1040 ------- 1 0.0 1.0 2 3
- 1.0448 0 2 tcp 1040 ------- 1 0.0 1.0 2 3
r 1.0548 0 2 tcp 1040 ------- 1 0.0 1.0 1 2
+ 1.0548 2 1 tcp 1040 ------- 1 0.0 1.0 1 2
- 1.0548 2 1 tcp 1040 ------- 1 0.0 1.0 1 2
r 1.05896 0 2 tcp 1040 ------- 1 0.0 1.0 2 3
+ 1.05896 2 1 tcp 1040 ------- 1 0.0 1.0 2 3
- 1.05896 2 1 tcp 1040 ------- 1 0.0 1.0 2 3
r 1.06896 2 1 tcp 1040 ------- 1 0.0 1.0 1 2
+ 1.06896 1 2 ack 40 ------- 1 1.0 0.0 1 4
- 1.06896 1 2 ack 40 ------- 1 1.0 0.0 1 4
r 1.07312 2 1 tcp 1040 ------- 1 0.0 1.0 2 3
+ 1.07312 1 2 ack 40 ------- 1 1.0 0.0 2 5
- 1.07312 1 2 ack 40 ------- 1 1.0 0.0 2 5
r 1.07912 1 2 ack 40 ------- 1 1.0 0.0 1 4
+ 1.07912 2 0 ack 40 ------- 1 1.0 0.0 1 4
- 1.07912 2 0 ack 40 ------- 1 1.0 0.0 1 4
r 1.08328 1 2 ack 40 ------- 1 1.0 0.0 2 5
+ 1.08328 2 0 ack 40 ------- 1 1.0 0.0 2 5
- 1.08328 2 0 ack 40 ------- 1 1.0 0.0 2 5
r 1.08928 2 0 ack 40 ------- 1 1.0 0.0 1 4
+ 1.08928 0 2 tcp 1040 ------- 1 0.0 1.0 3 6
- 1.08928 0 2 tcp 1040 ------- 1 0.0 1.0 3 6
+ 1.08928 0 2 tcp 1040 ------- 1 0.0 1.0 4 7
r 1.09344 2 0 ack 40 ------- 1 1.0 0.0 2 5
+ 1.09344 0 2 tcp 1040 ------- 1 0.0 1.0 5 8
+ 1.09344 0 2 tcp 1040 ------- 1 0.0 1.0 6 9
- 1.09344 0 2 tcp 1040 ------- 1 0.0 1.0 4 7
- 1.0976 0 2 tcp 1040 ------- 1 0.0 1.0 5 8
- 1.10176 0 2 tcp 1040 ------- 1 0.0 1.0 6 9
r 1.10344 0 2 tcp 1040 ------- 1 0.0 1.0 3 6
+ 1.10344 2 1 tcp 1040 ------- 1 0.0 1.0 3 6
- 1.10344 2 1 tcp 1040 ------- 1 0.0 1.0 3 6
r 1.1076 0 2 tcp 1040 ------- 1 0.0 1.0 4 7
+ 1.1076 2 1 tcp 1040 ------- 1 0.0 1.0 4 7
- 1.1076 2 1 tcp 1040 ------- 1 0.0 1.0 4 7
r 1.11176 0 2 tcp 1040 ------- 1 0.0 1.0 5 8
+ 1.11176 2 1 tcp 1040 ------- 1 0.0 1.0 5 8
- 1.11176 2 1 tcp 1040 ------- 1 0.0 1.0 5 8
r 1.11592 0 2 tcp 1040 ------- 1 0.0 1.0 6 9
+ 1.11592 2 1 tcp 1040 ------- 1 0.0 1.0 6 9
- 1.11592 2 1 tcp 1040 ------- 1 0.0 1.0 6 9
r 1.1176 2 1 tcp 1040 ------- 1 0.0 1.0 3 6
+ 1.1176 1 2 ack 40 ------- 1 1.0 0.0 3 10
- 1.1176 1 2 ack 40 ------- 1 1.0 0.0 3 10
r 1.12176 2 1 tcp 1040 ------- 1 0.0 1.0 4 7
+ 1.12176 1 2 ack 40 ------- 1 1.0 0.0 4 11
- 1.12176 1 2 ack 40 ------- 1 1.0 0.0 4 11
r 1.12592 2 1 tcp 1040 ------- 1 0.0 1.0 5 8
+ 1.12592 1 2 ack 40 ------- 1 1.0 0.0 5 12
- 1.12592 1 2 ack 40 ------- 1 1.0 0.0 5 12
r 1.12776 1 2 ack 40 ------- 1 1.0 0.0 3 10
+ 1.12776 2 0 ack 40 ------- 1 1.0 0.0 3 10
- 1.12776 2 0 ack 40 ------- 1 1.0 0.0 3 10
r 1.13008 2 1 tcp 1040 ------- 1 0.0 1.0 6 9
+ 1.13008 1 2 ack 40 ------- 1 1.0 0.0 6 13
- 1.13008 1 2 ack 40 ------- 1 1.0 0.0 6 13
r 1.13192 1 2 ack 40 ------- 1 1.0 0.0 4 11
+ 1.13192 2 0 ack 40 ------- 1 1.0 0.0 4 11
- 1.13192 2 0 ack 40 ------- 1 1.0 0.0 4 11
r 1.13608 1 2 ack 40 ------- 1 1.0 0.0 5 12
+ 1.13608 2 0 ack 40 ------- 1 1.0 0.0 5 12
- 1.13608 2 0 ack 40 ------- 1 1.0 0.0 5 12
r 1.13792 2 0 ack 40 ------- 1 1.0 0.0 3 10
+ 1.13792 0 2 tcp 1040 ------- 1 0.0 1.0 7 14
- 1.13792 0 2 tcp 1040 ------- 1 0.0 1.0 7 14
+ 1.13792 0 2 tcp 1040 ------- 1 0.0 1.0 8 15
r 1.14024 1 2 ack 40 ------- 1 1.0 0.0 6 13
+ 1.14024 2 0 ack 40 ------- 1 1.0 0.0 6 13
- 1.14024 2 0 ack 40 ------- 1 1.0 0.0 6 13
r 1.14208 2 0 ack 40 ------- 1 1.0 0.0 4 11
+ 1.14208 0 2 tcp 1040 ------- 1 0.0 1.0 9 16
+ 1.14208 0 2 tcp 1040 ------- 1 0.0 1.0 10 17
- 1.14208 0 2 tcp 1040 ------- 1 0.0 1.0 8 15
r 1.14624 2 0 ack 40 ------- 1 1.0 0.0 5 12
+ 1.14624 0 2 tcp 1040 ------- 1 0.0 1.0 11 18
+ 1.14624 0 2 tcp 1040 ------- 1 0.0 1.0 12 19
- 1.14624 0 2 tcp 1040 ------- 1 0.0 1.0 9 16
r 1.1504 2 0 ack 40 ------- 1 1.0 0.0 6 13
+ 1.1504 0 2 tcp 1040 ------- 1 0.0 1.0 13 20
+ 1.1504 0 2 tcp 1040 ------- 1 0.0 1.0 14 21
- 1.1504 0 2 tcp 1040 ------- 1 0.0 1.0 10 17
r 1.15208 0 2 tcp 1040 ------- 1 0.0 1.0 7 14
+ 1.15208 2 1 tcp 1040 ------- 1 0.0 1.0 7 14
- 1.15208 2 1 tcp 1040 ------- 1 0.0 1.0 7 14
- 1.15456 0 2 tcp 1040 ------- 1 0.0 1.0 11 18
r 1.15624 0 2 tcp 1040 ------- 1 0.0 1.0 8 15
+ 1.15624 2 1 tcp 1040 ------- 1 0.0 1.0 8 15
- 1.15624 2 1 tcp 1040 ------- 1 0.0 1.0 8 15
- 1.15872 0 2 tcp 1040 ------- 1 0.0 1.0 12 19
r 1.1604 0 2 tcp 1040 ------- 1 0.0 1.0 9 16
+ 1.1604 2 1 tcp 1040 ------- 1 0.0 1.0 9 16
- 1.1604 2 1 tcp 1040 ------- 1 0.0 1.0 9 16
- 1.16288 0 2 tcp 1040 ------- 1 0.0 1.0 13 20
r 1.16456 0 2 tcp 1040 ------- 1 0.0 1.0 10 17
+ 1.16456 2 1 tcp 1040 ------- 1 0.0 1.0 10 17
- 1.16456 2 1 tcp 1040 ------- 1 0.0 1.0 10 17
r 1.16624 2 1 tcp 1040 ------- 1 0.0 1.0 7 14
+ 1.16624 1 2 ack 40 ------- 1 1.0 0.0 7 22
- 1.16624 1 2 ack 40 ------- 1 1.0 0.0 7 22
- 1.16704 0 2 tcp 1040 ------- 1 0.0 1.0 14 21
r 1.16872 0 2 tcp 1040 ------- 1 0.0 1.0 11 18
+ 1.16872 2 1 tcp 1040 ------- 1 0.0 1.0 11 18
- 1.16872 2 1 tcp 1040 ------- 1 0.0 1.0 11 18
r 1.1704 2 1 tcp 1040 ------- 1 0.0 1.0 8 15
+ 1.1704 1 2 ack 40 ------- 1 1.0 0.0 8 23
- 1.1704 1 2 ack 40 ------- 1 1.0 0.0 8 23
r 1.17288 0 2 tcp 1040 ------- 1 0.0 1.0 12 19
+ 1.17288 2 1 tcp 1040 ------- 1 0.0 1.0 12 19
- 1.17288 2 1 tcp 1040 ------- 1 0.0 1.0 12 19
r 1.17456 2 1 tcp 1040 ------- 1 0.0 1.0 9 16
+ 1.17456 1 2 ack 40 ------- 1 1.0 0.0 9 24
- 1.17456 1 2 ack 40 ------- 1 1.0 0.0 9 24
r 1.1764 1 2 ack 40 ------- 1 1.0 0.0 7 22
+ 1.1764 2 0 ack 40 ------- 1 1.0 0.0 7 22
- 1.1764 2 0 ack 40 ------- 1 1.0 0.0 7 22
r 1.17704 0 2 tcp 1040 ------- 1 0.0 1.0 13 20
+ 1.17704 2 1 tcp 1040 ------- 1 0.0 1.0 13 20
- 1.17704 2 1 tcp 1040 ------- 1 0.0 1.0 13 20
r 1.17872 2 1 tcp 1040 ------- 1 0.0 1.0 10 17
+ 1.17872 1 2 ack 40 ------- 1 1.0 0.0 10 25
- 1.17872 1 2 ack 40 ------- 1 1.0 0.0 10 25
r 1.18056 1 2 ack 40 ------- 1 1.0 0.0 8 23
+ 1.18056 2 0 ack 40 ------- 1 1.0 0.0 8 23
- 1.18056 2 0 ack 40 ------- 1 1.0 0.0 8 23
r 1.1812 0 2 tcp 1040 ------- 1 0.0 1.0 14 21
+ 1.1812 2 1 tcp 1040 ------- 1 0.0 1.0 14 21
- 1.1812 2 1 tcp 1040 ------- 1 0.0 1.0 14 21
r 1.18288 2 1 tcp 1040 ------- 1 0.0 1.0 11 18
+ 1.18288 1 2 ack 40 ------- 1 1.0 0.0 11 26
- 1.18288 1 2 ack 40 ------- 1 1.0 0.0 11 26
r 1.18472 1 2 ack 40 ------- 1 1.0 0.0 9 24
+ 1.18472 2 0 ack 40 ------- 1 1.0 0.0 9 24
- 1.18472 2 0 ack 40 ------- 1 1.0 0.0 9 24
r 1.18656 2 0 ack 40 ------- 1 1.0 0.0 7 22
+ 1.18656 0 2 tcp 1040 ------- 1 0.0 1.0 15 27
- 1.18656 0 2 tcp 1040 ------- 1 0.0 1.0 15 27
+ 1.18656 0 2 tcp 1040 ------- 1 0.0 1.0 16 28
r 1.18704 2 1 tcp 1040 ------- 1 0.0 1.0 12 19
+ 1.18704 1 2 ack 40 ------- 1 1.0 0.0 12 29
- 1.18704 1 2 ack 40 ------- 1 1.0 0.0 12 29
r 1.18888 1 2 ack 40 ------- 1 1.0 0.0 10 25
+ 1.18888 2 0 ack 40 ------- 1 1.0 0.0 10 25
- 1.18888 2 0 ack 40 ------- 1 1.0 0.0 10 25
r 1.19072 2 0 ack 40 ------- 1 1.0 0.0 8 23
+ 1.19072 0 2 tcp 1040 ------- 1 0.0 1.0 17 30
+ 1.19072 0 2 tcp 1040 ------- 1 0.0 1.0 18 31
- 1.19072 0 2 tcp 1040 ------- 1 0.0 1.0 16 28
r 1.1912 2 1 tcp 1040 ------- 1 0.0 1.0 13 20
+ 1.1912 1 2 ack 40 ------- 1 1.0 0.0 13 32
- 1.1912 1 2 ack 40 ------- 1 1.0 0.0 13 32
r 1.19304 1 2 ack 40 ------- 1 1.0 0.0 11 26
+ 1.19304 2 0 ack 40 ------- 1 1.0 0.0 11 26
- 1.19304 2 0 ack 40 ------- 1 1.0 0.0 11 26
r 1.19488 2 0 ack 40 ------- 1 1.0 0.0 9 24
+ 1.19488 0 2 tcp 1040 ------- 1 0.0 1.0 19 33
+ 1.19488 0 2 tcp 1040 ------- 1 0.0 1.0 20 34
- 1.19488 0 2 tcp 1040 ------- 1 0.0 1.0 17 30
r 1.19536 2 1 tcp 1040 ------- 1 0.0 1.0 14 21
+ 1.19536 1 2 ack 40 ------- 1 1.0 0.0 14 35
- 1.19536 1 2 ack 40 ------- 1 1.0 0.0 14 35
r 1.1972 1 2 ack 40 ------- 1 1.0 0.0 12 29
+ 1.1972 2 0 ack 40 ------- 1 1.0 0.0 12 29
- 1.1972 2 0 ack 40 ------- 1 1.0 0.0 12 29
r 1.19904 2 0 ack 40 ------- 1 1.0 0.0 10 25
+ 1.19904 0 2 tcp 1040 ------- 1 0.0 1.0 21 36
+ 1.19904 0 2 tcp 1040 ------- 1 0.0 1.0 22 37
- 1.19904 0 2 tcp 1040 ------- 1 0.0 1.0 18 31
r 1.20072 0 2 tcp 1040 ------- 1 0.0 1.0 15 27
+ 1.20072 2 1 tcp 1040 ------- 1 0.0 1.0 15 27
- 1.20072 2 1 tcp 1040 ------- 1 0.0 1.0 15 27
r 1.20136 1 2 ack 40 ------- 1 1.0 0.0 13 32
+ 1.20136 2 0 ack 40 ------- 1 1.0 0.0 13 32
- 1.20136 2 0 ack 40 ------- 1 1.0 0.0 13 32
r 1.2032 2 0 ack 40 ------- 1 1.0 0.0 11 26
+ 1.2032 0 2 tcp 1040 ------- 1 0.0 1.0 23 38
+ 1.2032 0 2 tcp 1040 ------- 1 0.0 1.0 24 39
- 1.2032 0 2 tcp 1040 ------- 1 0.0 1.0 19 33
r 1.20488 0 2 tcp 1040 ------- 1 0.0 1.0 16 28
+ 1.20488 2 1 tcp 1040 ------- 1 0.0 1.0 16 28
- 1.20488 2 1 tcp 1040 ------- 1 0.0 1.0 16 28
r 1.20552 1 2 ack 40 ------- 1 1.0 0.0 14 35
+ 1.20552 2 0 ack 40 ------- 1 1.0 0.0 14 35
- 1.20552 2 0 ack 40 ------- 1 1.0 0.0 14 35
r 1.20736 2 0 ack 40 ------- 1 1.0 0.0 12 29
+ 1.20736 0 2 tcp 1040 ------- 1 0.0 1.0 25 40
+ 1.20736 0 2 tcp 1040 ------- 1 0.0 1.0 26 41
- 1.20736 0 2 tcp 1040 ------- 1 0.0 1.0 20 34
r 1.20904 0 2 tcp 1040 ------- 1 0.0 1.0 17 30
+ 1.20904 2 1 tcp 1040 ------- 1 0.0 1.0 17 30
- 1.20904 2 1 tcp 1040 ------- 1 0.0 1.0 17 30
r 1.21152 2 0 ack 40 ------- 1 1.0 0.0 13 32
+ 1.21152 0 2 tcp 1040 ------- 1 0.0 1.0 27 42
+ 1.21152 0 2 tcp 1040 ------- 1 0.0 1.0 28 43
- 1.21152 0 2 tcp 1040 ------- 1 0.0 1.0 21 36
r 1.2132 0 2 tcp 1040 ------- 1 0.0 1.0 18 31
+ 1.2132 2 1 tcp 1040 ------- 1 0.0 1.0 18 31
- 1.2132 2 1 tcp 1040 ------- 1 0.0 1.0 18 31
r 1.21488 2 1 tcp 1040 ------- 1 0.0 1.0 15 27
+ 1.21488 1 2 ack 40 ------- 1 1.0 0.0 15 44
- 1.21488 1 2 ack 40 ------- 1 1.0 0.0 15 44
r 1.21568 2 0 ack 40 ------- 1 1.0 0.0 14 35
+ 1.21568 0 2 tcp 1040 ------- 1 0.0 1.0 29 45
+ 1.21568 0 2 tcp 1040 ------- 1 0.0 1.0 30 46
- 1.21568 0 2 tcp 1040 ------- 1 0.0 1.0 22 37
r 1.21736 0 2 tcp 1040 ------- 1 0.0 1.0 19 33
+ 1.21736 2 1 tcp 1040 ------- 1 0.0 1.0 19 33
- 1.21736 2 1 tcp 1040 ------- 1 0.0 1.0 19 33
r 1.21904 2 1 tcp 1040 ------- 1 0.0 1.0 16 28
+ 1.21904 1 2 ack 40 ------- 1 1.0 0.0 16 47
- 1.21904 1 2 ack 40 ------- 1 1.0 0.0 16 47
- 1.21984 0 2 tcp 1040 ------- 1 0.0 1.0 23 38
r 1.22152 0 2 tcp 1040 ------- 1 0.0 1.0 20 34
+ 1.22152 2 1 tcp 1040 ------- 1 0.0 1.0 20 34
- 1.22152 2 1 tcp 1040 ------- 1 0.0 1.0 20 34
r 1.2232 2 1 tcp 1040 ------- 1 0.0 1.0 17 30
+ 1.2232 1 2 ack 40 ------- 1 1.0 0.0 17 48
- 1.2232 1 2 ack 40 ------- 1 1.0 0.0 17 48
- 1.224 0 2 tcp 1040 ------- 1 0.0 1.0 24 39
r 1.22504 1 2 ack 40 ------- 1 1.0 0.0 15 44
+ 1.22504 2 0 ack 40 ------- 1 1.0 0.0 15 44
- 1.22504 2 0 ack 40 ------- 1 1.0 0.0 15 44
r 1.22568 0 2 tcp 1040 ------- 1 0.0 1.0 21 36
+ 1.22568 2 1 tcp 1040 ------- 1 0.0 1.0 21 36
- 1.22568 2 1 tcp 1040 ------- 1 0.0 1.0 21 36
r 1.22736 2 1 tcp 1040 ------- 1 0.0 1.0 18 31
+ 1.22736 1 2 ack 40 ------- 1 1.0 0.0 18 49
- 1.22736 1 2 ack 40 ------- 1 1.0 0.0 18 49
- 1.22816 0 2 tcp 1040 ------- 1 0.0 1.0 25 40
r 1.2292 1 2 ack 40 ------- 1 1.0 0.0 16 47
+ 1.2292 2 0 ack 40 ------- 1 1.0 0.0 16 47
- 1.2292 2 0 ack 40 ------- 1 1.0 0.0 16 47
r 1.22984 0 2 tcp 1040 ------- 1 0.0 1.0 22 37
+ 1.22984 2 1 tcp 1040 ------- 1 0.0 1.0 22 37
- 1.22984 2 1 tcp 1040 ------- 1 0.0 1.0 22 37
r 1.23152 2 1 tcp 1040 ------- 1 0.0 1.0 19 33
+ 1.23152 1 2 ack 40 ------- 1 1.0 0.0 19 50
- 1.23152 1 2 ack 40 ------- 1 1.0 0.0 19 50
- 1.23232 0 2 tcp 1040 ------- 1 0.0 1.0 26 41
r 1.23336 1 2 ack 40 ------- 1 1.0 0.0 17 48
+ 1.23336 2 0 ack 40 ------- 1 1.0 0.0 17 48
- 1.23336 2 0 ack 40 ------- 1 1.0 0.0 17 48
r 1.234 0 2 tcp 1040 ------- 1 0.0 1.0 23 38
+ 1.234 2 1 tcp 1040 ------- 1 0.0 1.0 23 38
- 1.234 2 1 tcp 1040 ------- 1 0.0 1.0 23 38
r 1.2352 2 0 ack 40 ------- 1 1.0 0.0 15 44
+ 1.2352 0 2 tcp 1040 ------- 1 0.0 1.0 31 51
+ 1.2352 0 2 tcp 1040 ------- 1 0.0 1.0 32 52
r 1.23568 2 1 tcp 1040 ------- 1 0.0 1.0 20 34
+ 1.23568 1 2 ack 40 ------- 1 1.0 0.0 20 53
- 1.23568 1 2 ack 40 ------- 1 1.0 0.0 20 53
- 1.23648 0 2 tcp 1040 ------- 1 0.0 1.0 27 42
r 1.23752 1 2 ack 40 ------- 1 1.0 0.0 18 49
+ 1.23752 2 0 ack 40 ------- 1 1.0 0.0 18 49
- 1.23752 2 0 ack 40 ------- 1 1.0 0.0 18 49
r 1.23816 0 2 tcp 1040 ------- 1 0.0 1.0 24 39
+ 1.23816 2 1 tcp 1040 ------- 1 0.0 1.0 24 39
- 1.23816 2 1 tcp 1040 ------- 1 0.0 1.0 24 39
r 1.23936 2 0 ack 40 ------- 1 1.0 0.0 16 47
+ 1.23936 0 2 tcp 1040 ------- 1 0.0 1.0 33 54
+ 1.23936 0 2 tcp 1040 ------- 1 0.0 1.0 34 55
r 1.23984 2 1 tcp 1040 ------- 1 0.0 1.0 21 36
+ 1.23984 1 2 ack 40 ------- 1 1.0 0.0 21 56
- 1.23984 1 2 ack 40 ------- 1 1.0 0.0 21 56
- 1.24064 0 2 tcp 1040 ------- 1 0.0 1.0 28 43
r 1.24168 1 2 ack 40 ------- 1 1.0 0.0 19 50
+ 1.24168 2 0 ack 40 ------- 1 1.0 0.0 19 50
- 1.24168 2 0 ack 40 ------- 1 1.0 0.0 19 50
r 1.24232 0 2 tcp 1040 ------- 1 0.0 1.0 25 40
+ 1.24232 2 1 tcp 1040 ------- 1 0.0 1.0 25 40
- 1.24232 2 1 tcp 1040 ------- 1 0.0 1.0 25 40
r 1.24352 2 0 ack 40 ------- 1 1.0 0.0 17 48
+ 1.24352 0 2 tcp 1040 ------- 1 0.0 1.0 35 57
+ 1.24352 0 2 tcp 1040 ------- 1 0.0 1.0 36 58
r 1.244 2 1 tcp 1040 ------- 1 0.0 1.0 22 37
+ 1.244 1 2 ack 40 ------- 1 1.0 0.0 22 59
- 1.244 1 2 ack 40 ------- 1 1.0 0.0 22 59
- 1.2448 0 2 tcp 1040 ------- 1 0.0 1.0 29 45
r 1.24584 1 2 ack 40 ------- 1 1.0 0.0 20 53
+ 1.24584 2 0 ack 40 ------- 1 1.0 0.0 20 53
- 1.24584 2 0 ack 40 ------- 1 1.0 0.0 20 53
r 1.24648 0 2 tcp 1040 ------- 1 0.0 1.0 26 41
+ 1.24648 2 1 tcp 1040 ------- 1 0.0 1.0 26 41
- 1.24648 2 1 tcp 1040 ------- 1 0.0 1.0 26 41
r 1.24768 2 0 ack 40 ------- 1 1.0 0.0 18 49
+ 1.24768 0 2 tcp 1040 ------- 1 0.0 1.0 37 60
+ 1.24768 0 2 tcp 1040 ------- 1 0.0 1.0 38 61
r 1.24816 2 1 tcp 1040 ------- 1 0.0 1.0 23 38
+ 1.24816 1 2 ack 40 ------- 1 1.0 0.0 23 62
- 1.24816 1 2 ack 40 ------- 1 1.0 0.0 23 62
- 1.24896 0 2 tcp 1040 ------- 1 0.0 1.0 30 46
r 1.25 1 2 ack 40 ------- 1 1.0 0.0 21 56
+ 1.25 2 0 ack 40 ------- 1 1.0 0.0 21 56
- 1.25 2 0 ack 40 ------- 1 1.0 0.0 21 56
r 1.25064 0 2 tcp 1040 ------- 1 0.0 1.0 27 42
+ 1.25064 2 1 tcp 1040 ------- 1 0.0 1.0 27 42
- 1.25064 2 1 tcp 1040 ------- 1 0.0 1.0 27 42
r 1.25184 2 0 ack 40 ------- 1 1.0 0.0 19 50
+ 1.25184 0 2 tcp 1040 ------- 1 0.0 1.0 39 63
r 1.25232 2 1 tcp 1040 ------- 1 0.0 1.0 24 39
+ 1.25232 1 2 ack 40 ------- 1 1.0 0.0 24 64
- 1.25232 1 2 ack 40 ------- 1 1.0 0.0 24 64
- 1.25312 0 2 tcp 1040 ------- 1 0.0 1.0 31 51
r 1.25416 1 2 ack 40 ------- 1 1.0 0.0 22 59
+ 1.25416 2 0 ack 40 ------- 1 1.0 0.0 22 59
- 1.25416 2 0 ack 40 ------- 1 1.0 0.0 22 59
r 1.2548 0 2 tcp 1040 ------- 1 0.0 1.0 28 43
+ 1.2548 2 1 tcp 1040 ------- 1 0.0 1.0 28 43
- 1.2548 2 1 tcp 1040 ------- 1 0.0 1.0 28 43
r 1.256 2 0 ack 40 ------- 1 1.0 0.0 20 53
+ 1.256 0 2 tcp 1040 ------- 1 0.0 1.0 40 65
r 1.25648 2 1 tcp 1040 ------- 1 0.0 1.0 25 40
+ 1.25648 1 2 ack 40 ------- 1 1.0 0.0 25 66
- 1.25648 1 2 ack 40 ------- 1 1.0 0.0 25 66
- 1.25728 0 2 tcp 1040 ------- 1 0.0 1.0 32 52
r 1.25832 1 2 ack 40 ------- 1 1.0 0.0 23 62
+ 1.25832 2 0 ack 40 ------- 1 1.0 0.0 23 62
- 1.25832 2 0 ack 40 ------- 1 1.0 0.0 23 62
r 1.25896 0 2 tcp 1040 ------- 1 0.0 1.0 29 45
+ 1.25896 2 1 tcp 1040 ------- 1 0.0 1.0 29 45
- 1.25896 2 1 tcp 1040 ------- 1 0.0 1.0 29 45
r 1.26016 2 0 ack 40 ------- 1 1.0 0.0 21 56
+ 1.26016 0 2 tcp 1040 ------- 1 0.0 1.0 41 67
r 1.26064 2 1 tcp 1040 ------- 1 0.0 1.0 26 41
+ 1.26064 1 2 ack 40 ------- 1 1.0 0.0 26 68
- 1.26064 1 2 ack 40 ------- 1 1.0 0.0 26 68
- 1.26144 0 2 tcp 1040 ------- 1 0.0 1.0 33 54
r 1.26248 1 2 ack 40 ------- 1 1.0 0.0 24 64
+ 1.26248 2 0 ack 40 ------- 1 1.0 0.0 24 64
- 1.26248 2 0 ack 40 ------- 1 1.0 0.0 24 64
r 1.26312 0 2 tcp 1040 ------- 1 0.0 1.0 30 46
+ 1.26312 2 1 tcp 1040 ------- 1 0.0 1.0 30 46
- 1.26312 2 1 tcp 1040 ------- 1 0.0 1.0 30 46
r 1.26432 2 0 ack 40 ------- 1 1.0 0.0 22 59
+ 1.26432 0 2 tcp 1040 ------- 1 0.0 1.0 42 69
r 1.2648 2 1 tcp 1040 ------- 1 0.0 1.0 27 42
+ 1.2648 1 2 ack 40 ------- 1 1.0 0.0 27 70
- 1.2648 1 2 ack 40 ------- 1 1.0 0.0 27 70
- 1.2656 0 2 tcp 1040 ------- 1 0.0 1.0 34 55
r 1.26664 1 2 ack 40 ------- 1 1.0 0.0 25 66
+ 1.26664 2 0 ack 40 ------- 1 1.0 0.0 25 66
- 1.26664 2 0 ack 40 ------- 1 1.0 0.0 25 66
r 1.26728 0 2 tcp 1040 ------- 1 0.0 1.0 31 51
+ 1.26728 2 1 tcp 1040 ------- 1 0.0 1.0 31 51
- 1.26728 2 1 tcp 1040 ------- 1 0.0 1.0 31 51
r 1.26848 2 0 ack 40 ------- 1 1.0 0.0 23 62
+ 1.26848 0 2 tcp 1040 ------- 1 0.0 1.0 43 71
r 1.26896 2 1 tcp 1040 ------- 1 0.0 1.0 28 43
+ 1.26896 1 2 ack 40 ------- 1 1.0 0.0 28 72
- 1.26896 1 2 ack 40 ------- 1 1.0 0.0 28 72
- 1.26976 0 2 tcp 1040 ------- 1 0.0 1.0 35 57
r 1.2708 1 2 ack 40 ------- 1 1.0 0.0 26 68
+ 1.2708 2 0 ack 40 ------- 1 1.0 0.0 26 68
- 1.2708 2 0 ack 40 ------- 1 1.0 0.0 26 68
r 1.27144 0 2 tcp 1040 ------- 1 0.0 1.0 32 52
+ 1.27144 2 1 tcp 1040 ------- 1 0.0 1.0 32 52
- 1.27144 2 1 tcp 1040 ------- 1 0.0 1.0 32 52
r 1.27264 2 0 ack 40 ------- 1 1.0 0.0 24 64
+ 1.27264 0 2 tcp 1040 ------- 1 0.0 1.0 44 73
r 1.27312 2 1 tcp 1040 ------- 1 0.0 1.0 29 45
+ 1.27312 1 2 ack 40 ------- 1 1.0 0.0 29 74
- 1.27312 1 2 ack 40 ------- 1 1.0 0.0 29 74
- 1.27392 0 2 tcp 1040 ------- 1 0.0 1.0 36 58
r 1.27496 1 2 ack 40 ------- 1 1.0 0.0 27 70
+ 1.27496 2 0 ack 40 ------- 1 1.0 0.0 27 70
- 1.27496 2 0 ack 40 ------- 1 1.0 0.0 27 70
r 1.2756 0 2 tcp 1040 ------- 1 0.0 1.0 33 54
+ 1.2756 2 1 tcp 1040 ------- 1 0.0 1.0 33 54
- 1.2756 2 1 tcp 1040 ------- 1 0.0 1.0 33 54
r 1.2768 2 0 ack 40 ------- 1 1.0 0.0 25 66
+ 1.2768 0 2 tcp 1040 ------- 1 0.0 1.0 45 75
r 1.27728 2 1 tcp 1040 ------- 1 0.0 1.0 30 46
+ 1.27728 1 2 ack 40 ------- 1 1.0 0.0 30 76
- 1.27728 1 2 ack 40 ------- 1 1.0 0.0 30 76
- 1.27808 0 2 tcp 1040 ------- 1 0.0 1.0 37 60
r 1.27912 1 2 ack 40 ------- 1 1.0 0.0 28 72
+ 1.27912 2 0 ack 40 ------- 1 1.0 0.0 28 72
- 1.27912 2 0 ack 40 ------- 1 1.0 0.0 28 72
r 1.27976 0 2 tcp 1040 ------- 1 0.0 1.0 34 55
+ 1.27976 2 1 tcp 1040 ------- 1 0.0 1.0 34 55
- 1.27976 2 1 tcp 1040 ------- 1 0.0 1.0 34 55
r 1.28096 2 0 ack 40 ------- 1 1.0 0.0 26 68
+ 1.28096 0 2 tcp 1040 ------- 1 0.0 1.0 46 77
r 1.28144 2 1 tcp 1040 ------- 1 0.0 1.0 31 51
+ 1.28144 1 2 ack 40 ------- 1 1.0 0.0 31 78
- 1.28144 1 2 ack 40 ------- 1 1.0 0.0 31 78
- 1.28224 0 2 tcp 1040 ------- 1 0.0 1.0 38 61
r 1.28328 1 2 ack 40 ------- 1 1.0 0.0 29 74
+ 1.28328 2 0 ack 40 ------- 1 1.0 0.0 29 74
- 1.28328 2 0 ack 40 ------- 1 1.0 0.0 29 74
r 1.28392 0 2 tcp 1040 ------- 1 0.0 1.0 35 57
+ 1.28392 2 1 tcp 1040 ------- 1 0.0 1.0 35 57
- 1.28392 2 1 tcp 1040 ------- 1 0.0 1.0 35 57
r 1.28512 2 0 ack 40 ------- 1 1.0 0.0 27 70
+ 1.28512 0 2 tcp 1040 ------- 1 0.0 1.0 47 79
r 1.2856 2 1 tcp 1040 ------- 1 0.0 1.0 32 52
+ 1.2856 1 2 ack 40 ------- 1 1.0 0.0 32 80
- 1.2856 1 2 ack 40 ------- 1 1.0 0.0 32 80
- 1.2864 0 2 tcp 1040 ------- 1 0.0 1.0 39 63
r 1.28744 1 2 ack 40 ------- 1 1.0 0.0 30 76
+ 1.28744 2 0 ack 40 ------- 1 1.0 0.0 30 76
- 1.28744 2 0 ack 40 ------- 1 1.0 0.0 30 76
r 1.28808 0 2 tcp 1040 ------- 1 0.0 1.0 36 58
+ 1.28808 2 1 tcp 1040 ------- 1 0.0 1.0 36 58
- 1.28808 2 1 tcp 1040 ------- 1 0.0 1.0 36 58
r 1.28928 2 0 ack 40 ------- 1 1.0 0.0 28 72
+ 1.28928 0 2 tcp 1040 ------- 1 0.0 1.0 48 81
r 1.28976 2 1 tcp 1040 ------- 1 0.0 1.0 33 54
+ 1.28976 1 2 ack 40 ------- 1 1.0 0.0 33 82
- 1.28976 1 2 ack 40 ------- 1 1.0 0.0 33 82
- 1.29056 0 2 tcp 1040 ------- 1 0.0 1.0 40 65
r 1.2916 1 2 ack 40 ------- 1 1.0 0.0 31 78
+ 1.2916 2 0 ack 40 ------- 1 1.0 0.0 31 78
- 1.2916 2 0 ack 40 ------- 1 1.0 0.0 31 78
r 1.29224 0 2 tcp 1040 ------- 1 0.0 1.0 37 60
+ 1.29224 2 1 tcp 1040 ------- 1 0.0 1.0 37 60
- 1.29224 2 1 tcp 1040 ------- 1 0.0 1.0 37 60
r 1.29344 2 0 ack 40 ------- 1 1.0 0.0 29 74
+ 1.29344 0 2 tcp 1040 ------- 1 0.0 1.0 49 83
r 1.29392 2 1 tcp 1040 ------- 1 0.0 1.0 34 55
+ 1.29392 1 2 ack 40 ------- 1 1.0 0.0 34 84
- 1.29392 1 2 ack 40 ------- 1 1.0 0.0 34 84
- 1.29472 0 2 tcp 1040 ------- 1 0.0 1.0 41 67
r 1.29576 1 2 ack 40 ------- 1 1.0 0.0 32 80
+ 1.29576 2 0 ack 40 ------- 1 1.0 0.0 32 80
- 1.29576 2 0 ack 40 ------- 1 1.0 0.0 32 80
r 1.2964 0 2 tcp 1040 ------- 1 0.0 1.0 38 61
+ 1.2964 2 1 tcp 1040 ------- 1 0.0 1.0 38 61
- 1.2964 2 1 tcp 1040 ------- 1 0.0 1.0 38 61
r 1.2976 2 0 ack 40 ------- 1 1.0 0.0 30 76
+ 1.2976 0 2 tcp 1040 ------- 1 0.0 1.0 50 85
r 1.29808 2 1 tcp 1040 ------- 1 0.0 1.0 35 57
+ 1.29808 1 2 ack 40 ------- 1 1.0 0.0 35 86
- 1.29808 1 2 ack 40 ------- 1 1.0 0.0 35 86
- 1.29888 0 2 tcp 1040 ------- 1 0.0 1.0 42 69
r 1.29992 1 2 ack 40 ------- 1 1.0 0.0 33 82
+ 1.29992 2 0 ack 40 ------- 1 1.0 0.0 33 82
- 1.29992 2 0 ack 40 ------- 1 1.0 0.0 33 82
r 1.30056 0 2 tcp 1040 ------- 1 0.0 1.0 39 63
+ 1.30056 2 1 tcp 1040 ------- 1 0.0 1.0 39 63
- 1.30056 2 1 tcp 1040 ------- 1 0.0 1.0 39 63
r 1.30176 2 0 ack 40 ------- 1 1.0 0.0 31 78
+ 1.30176 0 2 tcp 1040 ------- 1 0.0 1.0 51 87
r 1.30224 2 1 tcp 1040 ------- 1 0.0 1.0 36 58
+ 1.30224 1 2 ack 40 ------- 1 1.0 0.0 36 88
- 1.30224 1 2 ack 40 ------- 1 1.0 0.0 36 88
- 1.30304 0 2 tcp 1040 ------- 1 0.0 1.0 43 71
r 1.30408 1 2 ack 40 ------- 1 1.0 0.0 34 84
+ 1.30408 2 0 ack 40 ------- 1 1.0 0.0 34 84
- 1.30408 2 0 ack 40 ------- 1 1.0 0.0 34 84
r 1.30472 0 2 tcp 1040 ------- 1 0.0 1.0 40 65
+ 1.30472 2 1 tcp 1040 ------- 1 0.0 1.0 40 65
- 1.30472 2 1 tcp 1040 ------- 1 0.0 1.0 40 65
r 1.30592 2 0 ack 40 ------- 1 1.0 0.0 32 80
+ 1.30592 0 2 tcp 1040 ------- 1 0.0 1.0 52 89
r 1.3064 2 1 tcp 1040 ------- 1 0.0 1.0 37 60
+ 1.3064 1 2 ack 40 ------- 1 1.0 0.0 37 90
- 1.3064 1 2 ack 40 ------- 1 1.0 0.0 37 90
- 1.3072 0 2 tcp 1040 ------- 1 0.0 1.0 44 73
r 1.30824 1 2 ack 40 ------- 1 1.0 0.0 35 86
+ 1.30824 2 0 ack 40 ------- 1 1.0 0.0 35 86
- 1.30824 2 0 ack 40 ------- 1 1.0 0.0 35 86
r 1.30888 0 2 tcp 1040 ------- 1 0.0 1.0 41 67
+ 1.30888 2 1 tcp 1040 ------- 1 0.0 1.0 41 67
- 1.30888 2 1 tcp 1040 ------- 1 0.0 1.0 41 67
r 1.31008 2 0 ack 40 ------- 1 1.0 0.0 33 82
+ 1.31008 0 2 tcp 1040 ------- 1 0.0 1.0 53 91
r 1.31056 2 1 tcp 1040 ------- 1 0.0 1.0 38 61
+ 1.31056 1 2 ack 40 ------- 1 1.0 0.0 38 92
- 1.31056 1 2 ack 40 ------- 1 1.0 0.0 38 92
- 1.31136 0 2 tcp 1040 ------- 1 0.0 1.0 45 75
r 1.3124 1 2 ack 40 ------- 1 1.0 0.0 36 88
+ 1.3124 2 0 ack 40 ------- 1 1.0 0.0 36 88
- 1.3124 2 0 ack 40 ------- 1 1.0 0.0 36 88
r 1.31304 0 2 tcp 1040 ------- 1 0.0 1.0 42 69
+ 1.31304 2 1 tcp 1040 ------- 1 0.0 1.0 42 69
- 1.31304 2 1 tcp 1040 ------- 1 0.0 1.0 42 69
r 1.31424 2 0 ack 40 ------- 1 1.0 0.0 34 84
+ 1.31424 0 2 tcp 1040 ------- 1 0.0 1.0 54 93
r 1.31472 2 1 tcp 1040 ------- 1 0.0 1.0 39 63
+ 1.31472 1 2 ack 40 ------- 1 1.0 0.0 39 94
- 1.31472 1 2 ack 40 ------- 1 1.0 0.0 39 94
- 1.31552 0 2 tcp 1040 ------- 1 0.0 1.0 46 77
r 1.31656 1 2 ack 40 ------- 1 1.0 0.0 37 90
+ 1.31656 2 0 ack 40 ------- 1 1.0 0.0 37 90
- 1.31656 2 0 ack 40 ------- 1 1.0 0.0 37 90
r 1.3172 0 2 tcp 1040 ------- 1 0.0 1.0 43 71
+ 1.3172 2 1 tcp 1040 ------- 1 0.0 1.0 43 71
- 1.3172 2 1 tcp 1040 ------- 1 0.0 1.0 43 71
r 1.3184 2 0 ack 40 ------- 1 1.0 0.0 35 86
+ 1.3184 0 2 tcp 1040 ------- 1 0.0 1.0 55 95
r 1.31888 2 1 tcp 1040 ------- 1 0.0 1.0 40 65
+ 1.31888 1 2 ack 40 ------- 1 1.0 0.0 40 96
- 1.31888 1 2 ack 40 ------- 1 1.0 0.0 40 96
- 1.31968 0 2 tcp 1040 ------- 1 0.0 1.0 47 79
r 1.32072 1 2 ack 40 ------- 1 1.0 0.0 38 92
+ 1.32072 2 0 ack 40 ------- 1 1.0 0.0 38 92
- 1.32072 2 0 ack 40 ------- 1 1.0 0.0 38 92
r 1.32136 0 2 tcp 1040 ------- 1 0.0 1.0 44 73
+ 1.32136 2 1 tcp 1040 ------- 1 0.0 1.0 44 73
- 1.32136 2 1 tcp 1040 ------- 1 0.0 1.0 44 73
r 1.32256 2 0 ack 40 ------- 1 1.0 0.0 36 88
+ 1.32256 0 2 tcp 1040 ------- 1 0.0 1.0 56 97
r 1.32304 2 1 tcp 1040 ------- 1 0.0 1.0 41 67
+ 1.32304 1 2 ack 40 ------- 1 1.0 0.0 41 98
- 1.32304 1 2 ack 40 ------- 1 1.0 0.0 41 98
- 1.32384 0 2 tcp 1040 ------- 1 0.0 1.0 48 81
r 1.32488 1 2 ack 40 ------- 1 1.0 0.0 39 94
+ 1.32488 2 0 ack 40 ------- 1 1.0 0.0 39 94
- 1.32488 2 0 ack 40 ------- 1 1.0 0.0 39 94
r 1.32552 0 2 tcp 1040 ------- 1 0.0 1.0 45 75
+ 1.32552 2 1 tcp 1040 ------- 1 0.0 1.0 45 75
- 1.32552 2 1 tcp 1040 ------- 1 0.0 1.0 45 75
r 1.32672 2 0 ack 40 ------- 1 1.0 0.0 37 90
+ 1.32672 0 2 tcp 1040 ------- 1 0.0 1.0 57 99
r 1.3272 2 1 tcp 1040 ------- 1 0.0 1.0 42 69
+ 1.3272 1 2 ack 40 ------- 1 1.0 0.0 42 100
- 1.3272 1 2 ack 40 ------- 1 1.0 0.0 42 100
- 1.328 0 2 tcp 1040 ------- 1 0.0 1.0 49 83
r 1.32904 1 2 ack 40 ------- 1 1.0 0.0 40 96
+ 1.32904 2 0 ack 40 ------- 1 1.0 0.0 40 96
- 1.32904 2 0 ack 40 ------- 1 1.0 0.0 40 96
r 1.32968 0 2 tcp 1040 ------- 1 0.0 1.0 46 77
+ 1.32968 2 1 tcp 1040 ------- 1 0.0 1.0 46 77
- 1.32968 2 1 tcp 1040 ------- 1 0.0 1.0 46 77
r 1.33088 2 0 ack 40 ------- 1 1.0 0.0 38 92
+ 1.33088 0 2 tcp 1040 ------- 1 0.0 1.0 58 101
r 1.33136 2 1 tcp 1040 ------- 1 0.0 1.0 43 71
+ 1.33136 1 2 ack 40 ------- 1 1.0 0.0 43 102
- 1.33136 1 2 ack 40 ------- 1 1.0 0.0 43 102
- 1.33216 0 2 tcp 1040 ------- 1 0.0 1.0 50 85
r 1.3332 1 2 ack 40 ------- 1 1.0 0.0 41 98
+ 1.3332 2 0 ack 40 ------- 1 1.0 0.0 41 98
- 1.3332 2 0 ack 40 ------- 1 1.0 0.0 41 98
r 1.33384 0 2 tcp 1040 ------- 1 0.0 1.0 47 79
+ 1.33384 2 1 tcp 1040 ------- 1 0.0 1.0 47 79
- 1.33384 2 1 tcp 1040 ------- 1 0.0 1.0 47 79
r 1.33504 2 0 ack 40 ------- 1 1.0 0.0 39 94
+ 1.33504 0 2 tcp 1040 ------- 1 0.0 1.0 59 103
r 1.33552 2 1 tcp 1040 ------- 1 0.0 1.0 44 73
+ 1.33552 1 2 ack 40 ------- 1 1.0 0.0 44 104
- 1.33552 1 2 ack 40 ------- 1 1.0 0.0 44 104
- 1.33632 0 2 tcp 1040 ------- 1 0.0 1.0 51 87
r 1.33736 1 2 ack 40 ------- 1 1.0 0.0 42 100
+ 1.33736 2 0 ack 40 ------- 1 1.0 0.0 42 100
- 1.33736 2 0 ack 40 ------- 1 1.0 0.0 42 100
r 1.338 0 2 tcp 1040 ------- 1 0.0 1.0 48 81
+ 1.338 2 1 tcp 1040 ------- 1 0.0 1.0 48 81
- 1.338 2 1 tcp 1040 ------- 1 0.0 1.0 48 81
r 1.3392 2 0 ack 40 ------- 1 1.0 0.0 40 96
+ 1.3392 0 2 tcp 1040 ------- 1 0.0 1.0 60 105
r 1.33968 2 1 tcp 1040 ------- 1 0.0 1.0 45 75
+ 1.33968 1 2 ack 40 ------- 1 1.0 0.0 45 106
- 1.33968 1 2 ack 40 ------- 1 1.0 0.0 45 106
- 1.34048 0 2 tcp 1040 ------- 1 0.0 1.0 52 89
r 1.34152 1 2 ack 40 ------- 1 1.0 0.0 43 102
+ 1.34152 2 0 ack 40 ------- 1 1.0 0.0 43 102
- 1.34152 2 0 ack 40 ------- 1 1.0 0.0 43 102
r 1.34216 0 2 tcp 1040 ------- 1 0.0 1.0 49 83
+ 1.34216 2 1 tcp 1040 ------- 1 0.0 1.0 49 83
- 1.34216 2 1 tcp 1040 ------- 1 0.0 1.0 49 83
r 1.34336 2 0 ack 40 ------- 1 1.0 0.0 41 98
+ 1.34336 0 2 tcp 1040 ------- 1 0.0 1.0 61 107
r 1.34384 2 1 tcp 1040 ------- 1 0.0 1.0 46 77
+ 1.34384 1 2 ack 40 ------- 1 1.0 0.0 46 108
- 1.34384 1 2 ack 40 ------- 1 1.0 0.0 46 108
- 1.34464 0 2 tcp 1040 ------- 1 0.0 1.0 53 91
r 1.34568 1 2 ack 40 ------- 1 1.0 0.0 44 104
+ 1.34568 2 0 ack 40 ------- 1 1.0 0.0 44 104
- 1.34568 2 0 ack 40 ------- 1 1.0 0.0 44 104
r 1.34632 0 2 tcp 1040 ------- 1 0.0 1.0 50 85
+ 1.34632 2 1 tcp 1040 ------- 1 0.0 1.0 50 85
- 1.34632 2 1 tcp 1040 ------- 1 0.0 1.0 50 85
r 1.34752 2 0 ack 40 ------- 1 1.0 0.0 42 100
+ 1.34752 0 2 tcp 1040 ------- 1 0.0 1.0 62 109
r 1.348 2 1 tcp 1040 ------- 1 0.0 1.0 47 79
+ 1.348 1 2 ack 40 ------- 1 1.0 0.0 47 110
- 1.348 1 2 ack 40 ------- 1 1.0 0.0 47 110
- 1.3488 0 2 tcp 1040 ------- 1 0.0 1.0 54 93
r 1.34984 1 2 ack 40 ------- 1 1.0 0.0 45 106
+ 1.34984 2 0 ack 40 ------- 1 1.0 0.0 45 106
- 1.34984 2 0 ack 40 ------- 1 1.0 0.0 45 106
r 1.35048 0 2 tcp 1040 ------- 1 0.0 1.0 51 87
+ 1.35048 2 1 tcp 1040 ------- 1 0.0 1.0 51 87
- 1.35048 2 1 tcp 1040 ------- 1 0.0 1.0 51 87
r 1.35168 2 0 ack 40 ------- 1 1.0 0.0 43 102
+ 1.35168 0 2 tcp 1040 ------- 1 0.0 1.0 63 111
r 1.35216 2 1 tcp 1040 ------- 1 0.0 1.0 48 81
+ 1.35216 1 2 ack 40 ------- 1 1.0 0.0 48 112
- 1.35216 1 2 ack 40 ------- 1 1.0 0.0 48 112
- 1.35296 0 2 tcp 1040 ------- 1 0.0 1.0 55 95
r 1.354 1 2 ack 40 ------- 1 1.0 0.0 46 108
+ 1.354 2 0 ack 40 ------- 1 1.0 0.0 46 108
- 1.354 2 0 ack 40 ------- 1 1.0 0.0 46 108
r 1.35464 0 2 tcp 1040 ------- 1 0.0 1.0 52 89
+ 1.35464 2 1 tcp 1040 ------- 1 0.0 1.0 52 89
- 1.35464 2 1 tcp 1040 ------- 1 0.0 1.0 52 89
r 1.35584 2 0 ack 40 ------- 1 1.0 0.0 44 104
+ 1.35584 0 2 tcp 1040 ------- 1 0.0 1.0 64 113
r 1.35632 2 1 tcp 1040 ------- 1 0.0 1.0 49 83
+ 1.35632 1 2 ack 40 ------- 1 1.0 0.0 49 114
- 1.35632 1 2 ack 40 ------- 1 1.0 0.0 49 114
- 1.35712 0 2 tcp 1040 ------- 1 0.0 1.0 56 97
r 1.35816 1 2 ack 40 ------- 1 1.0 0.0 47 110
+ 1.35816 2 0 ack 40 ------- 1 1.0 0.0 47 110
- 1.35816 2 0 ack 40 ------- 1 1.0 0.0 47 110
r 1.3588 0 2 tcp 1040 ------- 1 0.0 1.0 53 91
+ 1.3588 2 1 tcp 1040 ------- 1 0.0 1.0 53 91
- 1.3588 2 1 tcp 1040 ------- 1 0.0 1.0 53 91
r 1.36 2 0 ack 40 ------- 1 1.0 0.0 45 106
+ 1.36 0 2 tcp 1040 ------- 1 0.0 1.0 65 115
r 1.36048 2 1 tcp 1040 ------- 1 0.0 1.0 50 85
+ 1.36048 1 2 ack 40 ------- 1 1.0 0.0 50 116
- 1.36048 1 2 ack 40 ------- 1 1.0 0.0 50 116
- 1.36128 0 2 tcp 1040 ------- 1 0.0 1.0 57 99
r 1.36232 1 2 ack 40 ------- 1 1.0 0.0 48 112
+ 1.36232 2 0 ack 40 ------- 1 1.0 0.0 48 112
- 1.36232 2 0 ack 40 ------- 1 1.0 0.0 48 112
r 1.36296 0 2 tcp 1040 ------- 1 0.0 1.0 54 93
+ 1.36296 2 1 tcp 1040 ------- 1 0.0 1.0 54 93
- 1.36296 2 1 tcp 1040 ------- 1 0.0 1.0 54 93
r 1.36416 2 0 ack 40 ------- 1 1.0 0.0 46 108
+ 1.36416 0 2 tcp 1040 ------- 1 0.0 1.0 66 117
r 1.36464 2 1 tcp 1040 ------- 1 0.0 1.0 51 87
+ 1.36464 1 2 ack 40 ------- 1 1.0 0.0 51 118
- 1.36464 1 2 ack 40 ------- 1 1.0 0.0 51 118
- 1.36544 0 2 tcp 1040 ------- 1 0.0 1.0 58 101
r 1.36648 1 2 ack 40 ------- 1 1.0 0.0 49 114
+ 1.36648 2 0 ack 40 ------- 1 1.0 0.0 49 114
- 1.36648 2 0 ack 40 ------- 1 1.0 0.0 49 114
r 1.36712 0 2 tcp 1040 ------- 1 0.0 1.0 55 95
+ 1.36712 2 1 tcp 1040 ------- 1 0.0 1.0 55 95
- 1.36712 2 1 tcp 1040 ------- 1 0.0 1.0 55 95
r 1.36832 2 0 ack 40 ------- 1 1.0 0.0 47 110
+ 1.36832 0 2 tcp 1040 ------- 1 0.0 1.0 67 119
r 1.3688 2 1 tcp 1040 ------- 1 0.0 1.0 52 89
+ 1.3688 1 2 ack 40 ------- 1 1.0 0.0 52 120
- 1.3688 1 2 ack 40 ------- 1 1.0 0.0 52 120
- 1.3696 0 2 tcp 1040 ------- 1 0.0 1.0 59 103
r 1.37064 1 2 ack 40 ------- 1 1.0 0.0 50 116
+ 1.37064 2 0 ack 40 ------- 1 1.0 0.0 50 116
- 1.37064 2 0 ack 40 ------- 1 1.0 0.0 50 116
r 1.37128 0 2 tcp 1040 ------- 1 0.0 1.0 56 97