n -t 0 -s 0 -S DLABEL -l "Source" -L ""
n -t 0 -s 0 -S DCOLOR -e "red" -E ""
V -t * -v 1.0a5 -a 0
A -t * -n 1 -p 0 -o 0x7fffffff -c 30 -a 1
A -t * -h 1 -m 1073741823 -s 0
n -t * -a 0 -s 0 -S UP -v square -c blue -i blue
n -t * -a 1 -s 1 -S UP -v circle -c black -i black
n -t * -a 2 -s 2 -S UP -v circle -c black -i black
l -t * -s 0 -d 2 -S UP -r 2000000 -D 0.01 -c black
l -t * -s 1 -d 2 -S UP -r 2000000 -D 0.01 -c black
n -t 0 -s 0 -S COLOR -c blue -o blue -i blue -I blue
n -t 0 -s 0 -S DLABEL -l "Source" -L "Source"
n -t 0 -s 1 -S DLABEL -l "Destination" -L ""
+ -t 1 -s 0 -d 2 -p tcp -e 40 -c 1 -i 0 -a 1 -x {0.0 1.0 0 ------- null}
- -t 1 -s 0 -d 2 -p tcp -e 40 -c 1 -i 0 -a 1 -x {0.0 1.0 0 ------- null}
h -t 1 -s 0 -d 2 -p tcp -e 40 -c 1 -i 0 -a 1 -x {0.0 1.0 -1 ------- null}
r -t 1.01016 -s 0 -d 2 -p tcp -e 40 -c 1 -i 0 -a 1 -x {0.0 1.0 0 ------- null}
+ -t 1.01016 -s 2 -d 1 -p tcp -e 40 -c 1 -i 0 -a 1 -x {0.0 1.0 0 ------- null}
- -t 1.01016 -s 2 -d 1 -p tcp -e 40 -c 1 -i 0 -a 1 -x {0.0 1.0 0 ------- null}
h -t 1.01016 -s 2 -d 1 -p tcp -e 40 -c 1 -i 0 -a 1 -x {0.0 1.0 -1 ------- null}
r -t 1.02032 -s 2 -d 1 -p tcp -e 40 -c 1 -i 0 -a 1 -x {0.0 1.0 0 ------- null}
+ -t 1.02032 -s 1 -d 2 -p ack -e 40 -c 1 -i 1 -a 1 -x {1.0 0.0 0 ------- null}
- -t 1.02032 -s 1 -d 2 -p ack -e 40 -c 1 -i 1 -a 1 -x {1.0 0.0 0 ------- null}
h -t 1.02032 -s 1 -d 2 -p ack -e 40 -c 1 -i 1 -a 1 -x {1.0 0.0 -1 ------- null}
r -t 1.03048 -s 1 -d 2 -p ack -e 40 -c 1 -i 1 -a 1 -x {1.0 0.0 0 ------- null}
+ -t 1.03048 -s 2 -d 0 -p ack -e 40 -c 1 -i 1 -a 1 -x {1.0 0.0 0 ------- null}
- -t 1.03048 -s 2 -d 0 -p ack -e 40 -c 1 -i 1 -a 1 -x {1.0 0.0 0 ------- null}
h -t 1.03048 -s 2 -d 0 -p ack -e 40 -c 1 -i 1 -a 1 -x {1.0 0.0 -1 ------- null}
r -t 1.04064 -s 2 -d 0 -p ack -e 40 -c 1 -i 1 -a 1 -x {1.0 0.0 0 ------- null}
+ -t 1.04064 -s 0 -d 2 -p tcp -e 1040 -c 1 -i 2 -a 1 -x {0.0 1.0 1 ------- null}
- -t 1.04064 -s 0 -d 2 -p tcp -e 1040 -c 1 -i 2 -a 1 -x {0.0 1.0 1 ------- null}
h -t 1.04064 -s 0 -d 2 -p tcp -e 1040 -c 1 -i 2 -a 1 -x {0.0 1.0 -1 ------- null}
+ -t 1.04064 -s 0 -d 2 -p tcp -e 1040 -c 1 -i 3 -a 1 -x {0.0 1.0 2 ------- null}
- -t 1.0448 -s 0 -d 2 -p tcp -e 1040 -c 1 -i 3 -a 1 -x {0.0 1.0 2 ------- null}
h -t 1.0448 -s 0 -d 2 -p tcp -e 1040 -c 1 -i 3 -a 1 -x {0.0 1.0 -1 ------- null}
r -t 1.0548 -s 0 -d 2 -p tcp -e 1040 -c 1 -i 2 -a 1 -x {0.0 1.0 1 ------- null}
+ -t 1.0548 -s 2 -d 1 -p tcp -e 1040 -c 1 -i 2 -a 1 -x {0.0 1.0 1 ------- null}
- -t 1.0548 -s 2 -d 1 -p tcp -e 1040 -c 1 -i 2 -a 1 -x {0.0 1.0 1 ------- null}
h -t 1.0548 -s 2 -d 1 -p tcp -e 1040 -c 1 -i 2 -a 1 -x {0.0 1.0 -1 ------- null}
r -t 1.05896 -s 0 -d 2 -p tcp -e 1040 -c 1 -i 3 -a 1 -x {0.0 1.0 2 ------- null}
+ -t 1.05896 -s 2 -d 1 -p tcp -e 1040 -c 1 -i 3 -a 1 -x {0.0 1.0 2 ------- null}
- -t 1.05896 -s 2 -d 1 -p tcp -e 1040 -c 1 -i 3 -a 1 -x {0.0 1.0 2 ------- null}
h -t 1.05896 -s 2 -d 1 -p tcp -e 1040 -c 1 -i 3 -a 1 -x {0.0 1.0 -1 ------- null}
r -t 1.06896 -s 2 -d 1 -p tcp -e 1040 -c 1 -i 2 -a 1 -x {0.0 1.0 1 ------- null}
+ -t 1.06896 -s 1 -d 2 -p ack -e 40 -c 1 -i 4 -a 1 -x {1.0 0.0 1 ------- null}
- -t 1.06896 -s 1 -d 2 -p ack -e 40 -c 1 -i 4 -a 1 -x {1.0 0.0 1 ------- null}
h -t 1.06896 -s 1 -d 2 -p ack -e 40 -c 1 -i 4 -a 1 -x {1.0 0.0 -1 ------- null}
r -t 1.07312 -s 2 -d 1 -p tcp -e 1040 -c 1 -i 3 -a 1 -x {0.0 1.0 2 ------- null}
+ -t 1.07312 -s 1 -d 2 -p ack -e 40 -c 1 -i 5 -a 1 -x {1.0 0.0 2 ------- null}
- -t 1.07312 -s 1 -d 2 -p ack -e 40 -c 1 -i 5 -a 1 -x {1.0 0.0 2 ------- null}
h -t 1.07312 -s 1 -d 2 -p ack -e 40 -c 1 -i 5 -a 1 -x {1.0 0.0 -1 ------- null}
r -t 1.07912 -s 1 -d 2 -p ack -e 40 -c 1 -i 4 -a 1 -x {1.0 0.0 1 ------- null}
+ -t 1.07912 -s 2 -d 0 -p ack -e 40 -c 1 -i 4 -a 1 -x {1.0 0.0 1 ------- null}
- -t 1.07912 -s 2 -d 0 -p ack -e 40 -c 1 -i 4 -a 1 -x {1.0 0.0 1 ------- null}
h -t 1.07912 -s 2 -d 0 -p ack -e 40 -c 1 -i 4 -a 1 -x {1.0 0.0 -1 ------- null}
r -t 1.08328 -s 1 -d 2 -p ack -e 40 -c 1 -i 5 -a 1 -x {1.0 0.0 2 ------- null}
+ -t 1.08328 -s 2 -d 0 -p ack -e 40 -c 1 -i 5 -a 1 -x {1.0 0.0 2 ------- null}
- -t 1.08328 -s 2 -d 0 -p ack -e 40 -c 1 -i 5 -a 1 -x {1.0 0.0 2 ------- null}
h -t 1.08328 -s 2 -d 0 -p ack -e 40 -c 1 -i 5 -a 1 -x {1.0 0.0 -1 ------- null}
r -t 1.08928 -s 2 -d 0 -p ack -e 40 -c 1 -i 4 -a 1 -x {1.0 0.0 1 ------- null}
+ -t 1.08928 -s 0 -d 2 -p tcp -e 1040 -c 1 -i 6 -a 1 -x {0.0 1.0 3 ------- null}
- -t 1.08928 -s 0 -d 2 -p tcp -e 1040 -c 1 -i 6 -a 1 -x {0.0 1.0 3 ------- null}
h -t 1.08928 -s 0 -d 2 -p tcp -e 1040 -c 1 -i 6 -a 1 -x {0.0 1.0 -1 ------- null}
+ -t 1.08928 -s 0 -d 2 -p tcp -e 1040 -c 1 -i 7 -a 1 -x {0.0 1.0 4 ------- null}
r -t 1.09344 -s 2 -d 0 -p ack -e 40 -c 1 -i 5 -a 1 -x {1.0 0.0 2 ------- null}
+ -t 1.09344 -s 0 -d 2 -p tcp -e 1040 -c 1 -i 8 -a 1 -x {0.0 1.0 5 ------- null}
+ -t 1.09344 -s 0 -d 2 -p tcp -e 1040 -c 1 -i 9 -a 1 -x {0.0 1.0 6 ------- null}
- -t 1.09344 -s 0 -d 2 -p tcp -e 1040 -c 1 -i 7 -a 1 -x {0.0 1.0 4 ------- null}
h -t 1.09344 -s 0 -d 2 -p tcp -e 1040 -c 1 -i 7 -a 1 -x {0.0 1.0 -1 ------- null}
- -t 1.0976 -s 0 -d 2 -p tcp -e 1040 -c 1 -i 8 -a 1 -x {0.0 1.0 5 ------- null}
h -t 1.0976 -s 0 -d 2 -p tcp -e 1040 -c 1 -i 8 -a 1 -x {0.0 1.0 -1 ------- null}
- -t 1.10176 -s 0 -d 2 -p tcp -e 1040 -c 1 -i 9 -a 1 -x {0.0 1.0 6 ------- null}
h -t 1.10176 -s 0 -d 2 -p tcp -e 1040 -c 1 -i 9 -a 1 -x {0.0 1.0 -1 ------- null}
r -t 1.10344 -s 0 -d 2 -p tcp -e 1040 -c 1 -i 6 -a 1 -x {0.0 1.0 3 ------- null}
+ -t 1.10344 -s 2 -d 1 -p tcp -e 1040 -c 1 -i 6 -a 1 -x {0.0 1.0 3 ------- null}
- -t 1.10344 -s 2 -d 1 -p tcp -e 1040 -c 1 -i 6 -a 1 -x {0.0 1.0 3 ------- null}
h -t 1.10344 -s 2 -d 1 -p tcp -e 1040 -c 1 -i 6 -a 1 -x {0.0 1.0 -1 ------- null}
r -t 1.1076 -s 0 -d 2 -p tcp -e 1040 -c 1 -i 7 -a 1 -x {0.0 1.0 4 ------- null}
+ -t 1.1076 -s 2 -d 1 -p tcp -e 1040 -c 1 -i 7 -a 1 -x {0.0 1.0 4 ------- null}
- -t 1.1076 -s 2 -d 1 -p tcp -e 1040 -c 1 -i 7 -a 1 -x {0.0 1.0 4 ------- null}
h -t 1.1076 -s 2 -d 1 -p tcp -e 1040 -c 1 -i 7 -a 1 -x {0.0 1.0 -1 ------- null}
r -t 1.11176 -s 0 -d 2 -p tcp -e 1040 -c 1 -i 8 -a 1 -x {0.0 1.0 5 ------- null}
+ -t 1.11176 -s 2 -d 1 -p tcp -e 1040 -c 1 -i 8 -a 1 -x {0.0 1.0 5 ------- null}
- -t 1.11176 -s 2 -d 1 -p tcp -e 1040 -c 1 -i 8 -a 1 -x {0.0 1.0 5 ------- null}
h -t 1.11176 -s 2 -d 1 -p tcp -e 1040 -c 1 -i 8 -a 1 -x {0.0 1.0 -1 ------- null}
r -t 1.11592 -s 0 -d 2 -p tcp -e 1040 -c 1 -i 9 -a 1 -x {0.0 1.0 6 ------- null}
+ -t 1.11592 -s 2 -d 1 -p tcp -e 1040 -c 1 -i 9 -a 1 -x {0.0 1.0 6 ------- null}
- -t 1.11592 -s 2 -d 1 -p tcp -e 1040 -c 1 -i 9 -a 1 -x {0.0 1.0 6 ------- null}
h -t 1.11592 -s 2 -d 1 -p tcp -e 1040 -c 1 -i 9 -a 1 -x {0.0 1.0 -1 ------- null}
r -t 1.1176 -s 2 -d 1 -p tcp -e 1040 -c 1 -i 6 -a 1 -x {0.0 1.0 3 ------- null}
+ -t 1.1176 -s 1 -d 2 -p ack -e 40 -c 1 -i 10 -a 1 -x {1.0 0.0 3 ------- null}
- -t 1.1176 -s 1 -d 2 -p ack -e 40 -c 1 -i 10 -a 1 -x {1.0 0.0 3 ------- null}
h -t 1.1176 -s 1 -d 2 -p ack -e 40 -c 1 -i 10 -a 1 -x {1.0 0.0 -1 ------- null}
r -t 1.12176 -s 2 -d 1 -p tcp -e 1040 -c 1 -i 7 -a 1 -x {0.0 1.0 4 ------- null}
+ -t 1.12176 -s 1 -d 2 -p ack -e 40 -c 1 -i 11 -a 1 -x {1.0 0.0 4 ------- null}
- -t 1.12176 -s 1 -d 2 -p ack -e 40 -c 1 -i 11 -a 1 -x {1.0 0.0 4 ------- null}
h -t 1.12176 -s 1 -d 2 -p ack -e 40 -c 1 -i 11 -a 1 -x {1.0 0.0 -1 ------- null}
r -t 1.12592 -s 2 -d 1 -p tcp -e 1040 -c 1 -i 8 -a 1 -x {0.0 1.0 5 ------- null}
+ -t 1.12592 -s 1 -d 2 -p ack -e 40 -c 1 -i 12 -a 1 -x {1.0 0.0 5 ------- null}
- -t 1.12592 -s 1 -d 2 -p ack -e 40 -c 1 -i 12 -a 1 -x {1.0 0.0 5 ------- null}
h -t 1.12592 -s 1 -d 2 -p ack -e 40 -c 1 -i 12 -a 1 -x {1.0 0.0 -1 ------- null}
r -t 1.12776 -s 1 -d 2 -p ack -e 40 -c 1 -i 10 -a 1 -x {1.0 0.0 3 ------- null}
+ -t 1.12776 -s 2 -d 0 -p ack -e 40 -c 1 -i 10 -a 1 -x {1.0 0.0 3 ------- null}
- -t 1.12776 -s 2 -d 0 -p ack -e 40 -c 1 -i 10 -a 1 -x {1.0 0.0 3 ------- null}
h -t 1.12776 -s 2 -d 0 -p ack -e 40 -c 1 -i 10 -a 1 -x {1.0 0.0 -1 ------- null}
r -t 1.13008 -s 2 -d 1 -p tcp -e 1040 -c 1 -i 9 -a 1 -x {0.0 1.0 6 ------- null}
+ -t 1.13008 -s 1 -d 2 -p ack -e 40 -c 1 -i 13 -a 1 -x {1.0 0.0 6 ------- null}
- -t 1.13008 -s 1 -d 2 -p ack -e 40 -c 1 -i 13 -a 1 -x {1.0 0.0 6 ------- null}
h -t 1.13008 -s 1 -d 2 -p ack -e 40 -c 1 -i 13 -a 1 -x {1.0 0.0 -1 ------- null}
r -t 1.13192 -s 1 -d 2 -p ack -e 40 -c 1 -i 11 -a 1 -x {1.0 0.0 4 ------- null}
+ -t 1.13192 -s 2 -d 0 -p ack -e 40 -c 1 -i 11 -a 1 -x {1.0 0.0 4 ------- null}
- -t 1.13192 -s 2 -d 0 -p ack -e 40 -c 1 -i 11 -a 1 -x {1.0 0.0 4 ------- null}
h -t 1.13192 -s 2 -d 0 -p ack -e 40 -c 1 -i 11 -a 1 -x {1.0 0.0 -1 ------- null}
r -t 1.13608 -s 1 -d 2 -p ack -e 40 -c 1 -i 12 -a 1 -x {1.0 0.0 5 ------- null}
+ -t 1.13608 -s 2 -d 0 -p ack -e 40 -c 1 -i 12 -a 1 -x {1.0 0.0 5 ------- null}
- -t 1.13608 -s 2 -d 0 -p ack -e 40 -c 1 -i 12 -a 1 -x {1.0 0.0 5 ------- null}
h -t 1.13608 -s 2 -d 0 -p ack -e 40 -c 1 -i 12 -a 1 -x {1.0 0.0 -1 ------- null}
r -t 1.13792 -s 2 -d 0 -p ack -e 40 -c 1 -i 10 -a 1 -x {1.0 0.0 3 ------- null}
+ -t 1.13792 -s 0 -d 2 -p tcp -e 1040 -c 1 -i 14 -a 1 -x {0.0 1.0 7 ------- null}
- -t 1.13792 -s 0 -d 2 -p tcp -e 1040 -c 1 -i 14 -a 1 -x {0.0 1.0 7 ------- null}
h -t 1.13792 -s 0 -d 2 -p tcp -e 1040 -c 1 -i 14 -a 1 -x {0.0 1.0 -1 ------- null}
+ -t 1.13792 -s 0 -d 2 -p tcp -e 1040 -c 1 -i 15 -a 1 -x {0.0 1.0 8 ------- null}
r -t 1.14024 -s 1 -d 2 -p ack -e 40 -c 1 -i 13 -a 1 -x {1.0 0.0 6 ------- null}
+ -t 1.14024 -s 2 -d 0 -p ack -e 40 -c 1 -i 13 -a 1 -x {1.0 0.0 6 ------- null}
- -t 1.14024 -s 2 -d 0 -p ack -e 40 -c 1 -i 13 -a 1 -x {1.0 0.0 6 ------- null}
h -t 1.14024 -s 2 -d 0 -p ack -e 40 -c 1 -i 13 -a 1 -x {1.0 0.0 -1 ------- null}
r -t 1.14208 -s 2 -d 0 -p ack -e 40 -c 1 -i 11 -a 1 -x {1.0 0.0 4 ------- null}
+ -t 1.14208 -s 0 -d 2 -p tcp -e 1040 -c 1 -i 16 -a 1 -x {0.0 1.0 9 ------- null}
+ -t 1.14208 -s 0 -d 2 -p tcp -e 1040 -c 1 -i 17 -a 1 -x {0.0 1.0 10 ------- null}
- -t 1.14208 -s 0 -d 2 -p tcp -e 1040 -c 1 -i 15 -a 1 -x {0.0 1.0 8 ------- null}
h -t 1.14208 -s 0 -d 2 -p tcp -e 1040 -c 1 -i 15 -a 1 -x {0.0 1.0 -1 ------- null}
r -t 1.14624 -s 2 -d 0 -p ack -e 40 -c 1 -i 12 -a 1 -x {1.0 0.0 5 ------- null}
+ -t 1.14624 -s 0 -d 2 -p tcp -e 1040 -c 1 -i 18 -a 1 -x {0.0 1.0 11 ------- null}
+ -t 1.14624 -s 0 -d 2 -p tcp -e 1040 -c 1 -i 19 -a 1 -x {0.0 1.0 12 ------- null}
- -t 1.14624 -s 0 -d 2 -p tcp -e 1040 -c 1 -i 16 -a 1 -x {0.0 1.0 9 ------- null}
h -t 1.14624 -s 0 -d 2 -p tcp -e 1040 -c 1 -i 16 -a 1 -x {0.0 1.0 -1 ------- null}
r -t 1.1504 -s 2 -d 0 -p ack -e 40 -c 1 -i 13 -a 1 -x {1.0 0.0 6 ------- null}
+ -t 1.1504 -s 0 -d 2 -p tcp -e 1040 -c 1 -i 20 -a 1 -x {0.0 1.0 13 ------- null}
+ -t 1.1504 -s 0 -d 2 -p tcp -e 1040 -c 1 -i 21 -a 1 -x {0.0 1.0 14 ------- null}
- -t 1.1504 -s 0 -d 2 -p tcp -e 1040 -c 1 -i 17 -a 1 -x {0.0 1.0 10 ------- null}
h -t 1.1504 -s 0 -d 2 -p tcp -e 1040 -c 1 -i 17 -a 1 -x {0.0 1.0 -1 ------- null}
r -t 1.15208 -s 0 -d 2 -p tcp -e 1040 -c 1 -i 14 -a 1 -x {0.0 1.0 7 ------- null}
+ -t 1.15208 -s 2 -d 1 -p tcp -e 1040 -c 1 -i 14 -a 1 -x {0.0 1.0 7 ------- null}
- -t 1.15208 -s 2 -d 1 -p tcp -e 1040 -c 1 -i 14 -a 1 -x {0.0 1.0 7 ------- null}
h -t 1.15208 -s 2 -d 1 -p tcp -e 1040 -c 1 -i 14 -a 1 -x {0.0 1.0 -1 ------- null}
- -t 1.15456 -s 0 -d 2 -p tcp -e 1040 -c 1 -i 18 -a 1 -x {0.0 1.0 11 ------- null}
h -t 1.15456 -s 0 -d 2 -p tcp -e 1040 -c 1 -i 18 -a 1 -x {0.0 1.0 -1 ------- null}
r -t 1.15624 -s 0 -d 2 -p tcp -e 1040 -c 1 -i 15 -a 1 -x {0.0 1.0 8 ------- null}
+ -t 1.15624 -s 2 -d 1 -p tcp -e 1040 -c 1 -i 15 -a 1 -x {0.0 1.0 8 ------- null}
- -t 1.15624 -s 2 -d 1 -p tcp -e 1040 -c 1 -i 15 -a 1 -x {0.0 1.0 8 ------- null}
h -t 1.15624 -s 2 -d 1 -p tcp -e 1040 -c 1 -i 15 -a 1 -x {0.0 1.0 -1 ------- null}
- -t 1.15872 -s 0 -d 2 -p tcp -e 1040 -c 1 -i 19 -a 1 -x {0.0 1.0 12 ------- null}
h -t 1.15872 -s 0 -d 2 -p tcp -e 1040 -c 1 -i 19 -a 1 -x {0.0 1.0 -1 ------- null}
r -t 1.1604 -s 0 -d 2 -p tcp -e 1040 -c 1 -i 16 -a 1 -x {0.0 1.0 9 ------- null}
+ -t 1.1604 -s 2 -d 1 -p tcp -e 1040 -c 1 -i 16 -a 1 -x {0.0 1.0 9 ------- null}
- -t 1.1604 -s 2 -d 1 -p tcp -e 1040 -c 1 -i 16 -a 1 -x {0.0 1.0 9 ------- null}
h -t 1.1604 -s 2 -d 1 -p tcp -e 1040 -c 1 -i 16 -a 1 -x {0.0 1.0 -1 ------- null}
- -t 1.16288 -s 0 -d 2 -p tcp -e 1040 -c 1 -i 20 -a 1 -x {0.0 1.0 13 ------- null}
h -t 1.16288 -s 0 -d 2 -p tcp -e 1040 -c 1 -i 20 -a 1 -x {0.0 1.0 -1 ------- null}
r -t 1.16456 -s 0 -d 2 -p tcp -e 1040 -c 1 -i 17 -a 1 -x {0.0 1.0 10 ------- null}
+ -t 1.16456 -s 2 -d 1 -p tcp -e 1040 -c 1 -i 17 -a 1 -x {0.0 1.0 10 ------- null}
- -t 1.16456 -s 2 -d 1 -p tcp -e 1040 -c 1 -i 17 -a 1 -x {0.0 1.0 10 ------- null}
h -t 1.16456 -s 2 -d 1 -p tcp -e 1040 -c 1 -i 17 -a 1 -x {0.0 1.0 -1 ------- null}
r -t 1.16624 -s 2 -d 1 -p tcp -e 1040 -c 1 -i 14 -a 1 -x {0.0 1.0 7 ------- null}
+ -t 1.16624 -s 1 -d 2 -p ack -e 40 -c 1 -i 22 -a 1 -x {1.0 0.0 7 ------- null}
- -t 1.16624 -s 1 -d 2 -p ack -e 40 -c 1 -i 22 -a 1 -x {1.0 0.0 7 ------- null}
h -t 1.16624 -s 1 -d 2 -p ack -e 40 -c 1 -i 22 -a 1 -x {1.0 0.0 -1 ------- null}
- -t 1.16704 -s 0 -d 2 -p tcp -e 1040 -c 1 -i 21 -a 1 -x {0.0 1.0 14 ------- null}
h -t 1.16704 -s 0 -d 2 -p tcp -e 1040 -c 1 -i 21 -a 1 -x {0.0 1.0 -1 ------- null}
r -t 1.16872 -s 0 -d 2 -p tcp -e 1040 -c 1 -i 18 -a 1 -x {0.0 1.0 11 ------- null}
+ -t 1.16872 -s 2 -d 1 -p tcp -e 1040 -c 1 -i 18 -a 1 -x {0.0 1.0 11 ------- null}
- -t 1.16872 -s 2 -d 1 -p tcp -e 1040 -c 1 -i 18 -a 1 -x {0.0 1.0 11 ------- null}
h -t 1.16872 -s 2 -d 1 -p tcp -e 1040 -c 1 -i 18 -a 1 -x {0.0 1.0 -1 ------- null}
r -t 1.1704 -s 2 -d 1 -p tcp -e 1040 -c 1 -i 15 -a 1 -x {0.0 1.0 8 ------- null}
+ -t 1.1704 -s 1 -d 2 -p ack -e 40 -c 1 -i 23 -a 1 -x {1.0 0.0 8 ------- null}
- -t 1.1704 -s 1 -d 2 -p ack -e 40 -c 1 -i 23 -a 1 -x {1.0 0.0 8 ------- null}
h -t 1.1704 -s 1 -d 2 -p ack -e 40 -c 1 -i 23 -a 1 -x {1.0 0.0 -1 ------- null}
r -t 1.17288 -s 0 -d 2 -p tcp -e 1040 -c 1 -i 19 -a 1 -x {0.0 1.0 12 ------- null}
+ -t 1.17288 -s 2 -d 1 -p tcp -e 1040 -c 1 -i 19 -a 1 -x {0.0 1.0 12 ------- null}
- -t 1.17288 -s 2 -d 1 -p tcp -e 1040 -c 1 -i 19 -a 1 -x {0.0 1.0 12 ------- null}
h -t 1.17288 -s 2 -d 1 -p tcp -e 1040 -c 1 -i 19 -a 1 -x {0.0 1.0 -1 ------- null}
r -t 1.17456 -s 2 -d 1 -p tcp -e 1040 -c 1 -i 16 -a 1 -x {0.0 1.0 9 ------- null}
+ -t 1.17456 -s 1 -d 2 -p ack -e 40 -c 1 -i 24 -a 1 -x {1.0 0.0 9 ------- null}
- -t 1.17456 -s 1 -d 2 -p ack -e 40 -c 1 -i 24 -a 1 -x {1.0 0.0 9 ------- null}
h -t 1.17456 -s 1 -d 2 -p ack -e 40 -c 1 -i 24 -a 1 -x {1.0 0.0 -1 ------- null}
r -t 1.1764 -s 1 -d 2 -p ack -e 40 -c 1 -i 22 -a 1 -x {1.0 0.0 7 ------- null}
+ -t 1.1764 -s 2 -d 0 -p ack -e 40 -c 1 -i 22 -a 1 -x {1.0 0.0 7 ------- null}
- -t 1.1764 -s 2 -d 0 -p ack -e 40 -c 1 -i 22 -a 1 -x {1.0 0.0 7 ------- null}
h -t 1.1764 -s 2 -d 0 -p ack -e 40 -c 1 -i 22 -a 1 -x {1.0 0.0 -1 ------- null}
r -t 1.17704 -s 0 -d 2 -p tcp -e 1040 -c 1 -i 20 -a 1 -x {0.0 1.0 13 ------- null}
+ -t 1.17704 -s 2 -d 1 -p tcp -e 1040 -c 1 -i 20 -a 1 -x {0.0 1.0 13 ------- null}
- -t 1.17704 -s 2 -d 1 -p tcp -e 1040 -c 1 -i 20 -a 1 -x {0.0 1.0 13 ------- null}
h -t 1.17704 -s 2 -d 1 -p tcp -e 1040 -c 1 -i 20 -a 1 -x {0.0 1.0 -1 ------- null}
r -t 1.17872 -s 2 -d 1 -p tcp -e 1040 -c 1 -i 17 -a 1 -x {0.0 1.0 10 ------- null}
+ -t 1.17872 -s 1 -d 2 -p ack -e 40 -c 1 -i 25 -a 1 -x {1.0 0.0 10 ------- null}
- -t 1.17872 -s 1 -d 2 -p ack -e 40 -c 1 -i 25 -a 1 -x {1.0 0.0 10 ------- null}
h -t 1.17872 -s 1 -d 2 -p ack -e 40 -c 1 -i 25 -a 1 -x {1.0 0.0 -1 ------- null}
r -t 1.18056 -s 1 -d 2 -p ack -e 40 -c 1 -i 23 -a 1 -x {1.0 0.0 8 ------- null}
+ -t 1.18056 -s 2 -d 0 -p ack -e 40 -c 1 -i 23 -a 1 -x {1.0 0.0 8 ------- null}
- -t 1.18056 -s 2 -d 0 -p ack -e 40 -c 1 -i 23 -a 1 -x {1.0 0.0 8 ------- null}
h -t 1.18056 -s 2 -d 0 -p ack -e 40 -c 1 -i 23 -a 1 -x {1.0 0.0 -1 ------- null}
r -t 1.1812 -s 0 -d 2 -p tcp -e 1040 -c 1 -i 21 -a 1 -x {0.0 1.0 14 ------- null}
+ -t 1.1812 -s 2 -d 1 -p tcp -e 1040 -c 1 -i 21 -a 1 -x {0.0 1.0 14 ------- null}
- -t 1.1812 -s 2 -d 1 -p tcp -e 1040 -c 1 -i 21 -a 1 -x {0.0 1.0 14 ------- null}
h -t 1.1812 -s 2 -d 1 -p tcp -e 1040 -c 1 -i 21 -a 1 -x {0.0 1.0 -1 ------- null}
r -t 1.18288 -s 2 -d 1 -p tcp -e 1040 -c 1 -i 18 -a 1 -x {0.0 1.0 11 ------- null}
+ -t 1.18288 -s 1 -d 2 -p ack -e 40 -c 1 -i 26 -a 1 -x {1.0 0.0 11 ------- null}
- -t 1.18288 -s 1 -d 2 -p ack -e 40 -c 1 -i 26 -a 1 -x {1.0 0.0 11 ------- null}
h -t 1.18288 -s 1 -d 2 -p ack -e 40 -c 1 -i 26 -a 1 -x {1.0 0.0 -1 ------- null}
r -t 1.18472 -s 1 -d 2 -p ack -e 40 -c 1 -i 24 -a 1 -x {1.0 0.0 9 ------- null}
+ -t 1.18472 -s 2 -d 0 -p ack -e 40 -c 1 -i 24 -a 1 -x {1.0 0.0 9 ------- null}
- -t 1.18472 -s 2 -d 0 -p ack -e 40 -c 1 -i 24 -a 1 -x {1.0 0.0 9 ------- null}
h -t 1.18472 -s 2 -d 0 -p ack -e 40 -c 1 -i 24 -a 1 -x {1.0 0.0 -1 ------- null}
r -t 1.18656 -s 2 -d 0 -p ack -e 40 -c 1 -i 22 -a 1 -x {1.0 0.0 7 ------- null}
+ -t 1.18656 -s 0 -d 2 -p tcp -e 1040 -c 1 -i 27 -a 1 -x {0.0 1.0 15 ------- null}
- -t 1.18656 -s 0 -d 2 -p tcp -e 1040 -c 1 -i 27 -a 1 -x {0.0 1.0 15 ------- null}
h -t 1.18656 -s 0 -d 2 -p tcp -e 1040 -c 1 -i 27 -a 1 -x {0.0 1.0 -1 ------- null}
+ -t 1.18656 -s 0 -d 2 -p tcp -e 1040 -c 1 -i 28 -a 1 -x {0.0 1.0 16 ------- null}
r -t 1.18704 -s 2 -d 1 -p tcp -e 1040 -c 1 -i 19 -a 1 -x {0.0 1.0 12 ------- null}
+ -t 1.18704 -s 1 -d 2 -p ack -e 40 -c 1 -i 29 -a 1 -x {1.0 0.0 12 ------- null}
- -t 1.18704 -s 1 -d 2 -p ack -e 40 -c 1 -i 29 -a 1 -x {1.0 0.0 12 ------- null}
h -t 1.18704 -s 1 -d 2 -p ack -e 40 -c 1 -i 29 -a 1 -x {1.0 0.0 -1 ------- null}
r -t 1.18888 -s 1 -d 2 -p ack -e 40 -c 1 -i 25 -a 1 -x {1.0 0.0 10 ------- null}
+ -t 1.18888 -s 2 -d 0 -p ack -e 40 -c 1 -i 25 -a 1 -x {1.0 0.0 10 ------- null}
- -t 1.18888 -s 2 -d 0 -p ack -e 40 -c 1 -i 25 -a 1 -x {1.0 0.0 10 ------- null}
h -t 1.18888 -s 2 -d 0 -p ack -e 40 -c 1 -i 25 -a 1 -x {1.0 0.0 -1 ------- null}
r -t 1.19072 -s 2 -d 0 -p ack -e 40 -c 1 -i 23 -a 1 -x {1.0 0.0 8 ------- null}
+ -t 1.19072 -s 0 -d 2 -p tcp -e 1040 -c 1 -i 30 -a 1 -x {0.0 1.0 17 ------- null}
+ -t 1.19072 -s 0 -d 2 -p tcp -e 1040 -c 1 -i 31 -a 1 -x {0.0 1.0 18 ------- null}
- -t 1.19072 -s 0 -d 2 -p tcp -e 1040 -c 1 -i 28 -a 1 -x {0.0 1.0 16 ------- null}
h -t 1.19072 -s 0 -d 2 -p tcp -e 1040 -c 1 -i 28 -a 1 -x {0.0 1.0 -1 ------- null}
r -t 1.1912 -s 2 -d 1 -p tcp -e 1040 -c 1 -i 20 -a 1 -x {0.0 1.0 13 ------- null}
+ -t 1.1912 -s 1 -d 2 -p ack -e 40 -c 1 -i 32 -a 1 -x {1.0 0.0 13 ------- null}
- -t 1.1912 -s 1 -d 2 -p ack -e 40 -c 1 -i 32 -a 1 -x {1.0 0.0 13 ------- null}
h -t 1.1912 -s 1 -d 2 -p ack -e 40 -c 1 -i 32 -a 1 -x {1.0 0.0 -1 ------- null}
r -t 1.19304 -s 1 -d 2 -p ack -e 40 -c 1 -i 26 -a 1 -x {1.0 0.0 11 ------- null}
+ -t 1.19304 -s 2 -d 0 -p ack -e 40 -c 1 -i 26 -a 1 -x {1.0 0.0 11 ------- null}
- -t 1.19304 -s 2 -d 0 -p ack -e 40 -c 1 -i 26 -a 1 -x {1.0 0.0 11 ------- null}
h -t 1.19304 -s 2 -d 0 -p ack -e 40 -c 1 -i 26 -a 1 -x {1.0 0.0 -1 ------- null}
r -t 1.19488 -s 2 -d 0 -p ack -e 40 -c 1 -i 24 -a 1 -x {1.0 0.0 9 ------- null}
+ -t 1.19488 -s 0 -d 2 -p tcp -e 1040 -c 1 -i 33 -a 1 -x {0.0 1.0 19 ------- null}
+ -t 1.19488 -s 0 -d 2 -p tcp -e 1040 -c 1 -i 34 -a 1 -x {0.0 1.0 20 ------- null}
- -t 1.19488 -s 0 -d 2 -p tcp -e 1040 -c 1 -i 30 -a 1 -x {0.0 1.0 17 ------- null}
h -t 1.19488 -s 0 -d 2 -p tcp -e 1040 -c 1 -i 30 -a 1 -x {0.0 1.0 -1 ------- null}
r -t 1.19536 -s 2 -d 1 -p tcp -e 1040 -c 1 -i 21 -a 1 -x {0.0 1.0 14 ------- null}
+ -t 1.19536 -s 1 -d 2 -p ack -e 40 -c 1 -i 35 -a 1 -x {1.0 0.0 14 ------- null}
- -t 1.19536 -s 1 -d 2 -p ack -e 40 -c 1 -i 35 -a 1 -x {1.0 0.0 14 ------- null}
h -t 1.19536 -s 1 -d 2 -p ack -e 40 -c 1 -i 35 -a 1 -x {1.0 0.0 -1 ------- null}
r -t 1.1972 -s 1 -d 2 -p ack -e 40 -c 1 -i 29 -a 1 -x {1.0 0.0 12 ------- null}
+ -t 1.1972 -s 2 -d 0 -p ack -e 40 -c 1 -i 29 -a 1 -x {1.0 0.0 12 ------- null}
- -t 1.1972 -s 2 -d 0 -p ack -e 40 -c 1 -i 29 -a 1 -x {1.0 0.0 12 ------- null}
h -t 1.1972 -s 2 -d 0 -p ack -e 40 -c 1 -i 29 -a 1 -x {1.0 0.0 -1 ------- null}
r -t 1.19904 -s 2 -d 0 -p ack -e 40 -c 1 -i 25 -a 1 -x {1.0 0.0 10 ------- null}
+ -t 1.19904 -s 0 -d 2 -p tcp -e 1040 -c 1 -i 36 -a 1 -x {0.0 1.0 21 ------- null}
+ -t 1.19904 -s 0 -d 2 -p tcp -e 1040 -c 1 -i 37 -a 1 -x {0.0 1.0 22 ------- null}
- -t 1.19904 -s 0 -d 2 -p tcp -e 1040 -c 1 -i 31 -a 1 -x {0.0 1.0 18 ------- null}
h -t 1.19904 -s 0 -d 2 -p tcp -e 1040 -c 1 -i 31 -a 1 -x {0.0 1.0 -1 ------- null}
r -t 1.20072 -s 0 -d 2 -p tcp -e 1040 -c 1 -i 27 -a 1 -x {0.0 1.0 15 ------- null}
+ -t 1.20072 -s 2 -d 1 -p tcp -e 1040 -c 1 -i 27 -a 1 -x {0.0 1.0 15 ------- null}
- -t 1.20072 -s 2 -d 1 -p tcp -e 1040 -c 1 -i 27 -a 1 -x {0.0 1.0 15 ------- null}
h -t 1.20072 -s 2 -d 1 -p tcp -e 1040 -c 1 -i 27 -a 1 -x {0.0 1.0 -1 ------- null}
r -t 1.20136 -s 1 -d 2 -p ack -e 40 -c 1 -i 32 -a 1 -x {1.0 0.0 13 ------- null}
+ -t 1.20136 -s 2 -d 0 -p ack -e 40 -c 1 -i 32 -a 1 -x {1.0 0.0 13 ------- null}
- -t 1.20136 -s 2 -d 0 -p ack -e 40 -c 1 -i 32 -a 1 -x {1.0 0.0 13 ------- null}
h -t 1.20136 -s 2 -d 0 -p ack -e 40 -c 1 -i 32 -a 1 -x {1.0 0.0 -1 ------- null}
r -t 1.2032 -s 2 -d 0 -p ack -e 40 -c 1 -i 26 -a 1 -x {1.0 0.0 11 ------- null}
+ -t 1.2032 -s 0 -d 2 -p tcp -e 1040 -c 1 -i 38 -a 1 -x {0.0 1.0 23 ------- null}
+ -t 1.2032 -s 0 -d 2 -p tcp -e 1040 -c 1 -i 39 -a 1 -x {0.0 1.0 24 ------- null}
- -t 1.2032 -s 0 -d 2 -p tcp -e 1040 -c 1 -i 33 -a 1 -x {0.0 1.0 19 ------- null}
h -t 1.2032 -s 0 -d 2 -p tcp -e 1040 -c 1 -i 33 -a 1 -x {0.0 1.0 -1 ------- null}
r -t 1.20488 -s 0 -d 2 -p tcp -e 1040 -c 1 -i 28 -a 1 -x {0.0 1.0 16 ------- null}
+ -t 1.20488 -s 2 -d 1 -p tcp -e 1040 -c 1 -i 28 -a 1 -x {0.0 1.0 16 ------- null}
- -t 1.20488 -s 2 -d 1 -p tcp -e 1040 -c 1 -i 28 -a 1 -x {0.0 1.0 16 ------- null}
h -t 1.20488 -s 2 -d 1 -p tcp -e 1040 -c 1 -i 28 -a 1 -x {0.0 1.0 -1 ------- null}
r -t 1.20552 -s 1 -d 2 -p ack -e 40 -c 1 -i 35 -a 1 -x {1.0 0.0 14 ------- null}
+ -t 1.20552 -s 2 -d 0 -p ack -e 40 -c 1 -i 35 -a 1 -x {1.0 0.0 14 ------- null}
- -t 1.20552 -s 2 -d 0 -p ack -e 40 -c 1 -i 35 -a 1 -x {1.0 0.0 14 ------- null}
h -t 1.20552 -s 2 -d 0 -p ack -e 40 -c 1 -i 35 -a 1 -x {1.0 0.0 -1 ------- null}
r -t 1.20736 -s 2 -d 0 -p ack -e 40 -c 1 -i 29 -a 1 -x {1.0 0.0 12 ------- null}
+ -t 1.20736 -s 0 -d 2 -p tcp -e 1040 -c 1 -i 40 -a 1 -x {0.0 1.0 25 ------- null}
+ -t 1.20736 -s 0 -d 2 -p tcp -e 1040 -c 1 -i 41 -a 1 -x {0.0 1.0 26 ------- null}
- -t 1.20736 -s 0 -d 2 -p tcp -e 1040 -c 1 -i 34 -a 1 -x {0.0 1.0 20 ------- null}
h -t 1.20736 -s 0 -d 2 -p tcp -e 1040 -c 1 -i 34 -a 1 -x {0.0 1.0 -1 ------- null}
r -t 1.20904 -s 0 -d 2 -p tcp -e 1040 -c 1 -i 30 -a 1 -x {0.0 1.0 17 ------- null}
+ -t 1.20904 -s 2 -d 1 -p tcp -e 1040 -c 1 -i 30 -a 1 -x {0.0 1.0 17 ------- null}
- -t 1.20904 -s 2 -d 1 -p tcp -e 1040 -c 1 -i 30 -a 1 -x {0.0 1.0 17 ------- null}
h -t 1.20904 -s 2 -d 1 -p tcp -e 1040 -c 1 -i 30 -a 1 -x {0.0 1.0 -1 ------- null}
r -t 1.21152 -s 2 -d 0 -p ack -e 40 -c 1 -i 32 -a 1 -x {1.0 0.0 13 ------- null}
+ -t 1.21152 -s 0 -d 2 -p tcp -e 1040 -c 1 -i 42 -a 1 -x {0.0 1.0 27 ------- null}
+ -t 1.21152 -s 0 -d 2 -p tcp -e 1040 -c 1 -i 43 -a 1 -x {0.0 1.0 28 ------- null}
- -t 1.21152 -s 0 -d 2 -p tcp -e 1040 -c 1 -i 36 -a 1 -x {0.0 1.0 21 ------- null}
h -t 1.21152 -s 0 -d 2 -p tcp -e 1040 -c 1 -i 36 -a 1 -x {0.0 1.0 -1 ------- null}
r -t 1.2132 -s 0 -d 2 -p tcp -e 1040 -c 1 -i 31 -a 1 -x {0.0 1.0 18 ------- null}
+ -t 1.2132 -s 2 -d 1 -p tcp -e 1040 -c 1 -i 31 -a 1 -x {0.0 1.0 18 ------- null}
- -t 1.2132 -s 2 -d 1 -p tcp -e 1040 -c 1 -i 31 -a 1 -x {0.0 1.0 18 ------- null}
h -t 1.2132 -s 2 -d 1 -p tcp -e 1040 -c 1 -i 31 -a 1 -x {0.0 1.0 -1 ------- null}
r -t 1.21488 -s 2 -d 1 -p tcp -e 1040 -c 1 -i 27 -a 1 -x {0.0 1.0 15 ------- null}
+ -t 1.21488 -s 1 -d 2 -p ack -e 40 -c 1 -i 44 -a 1 -x {1.0 0.0 15 ------- null}
- -t 1.21488 -s 1 -d 2 -p ack -e 40 -c 1 -i 44 -a 1 -x {1.0 0.0 15 ------- null}
h -t 1.21488 -s 1 -d 2 -p ack -e 40 -c 1 -i 44 -a 1 -x {1.0 0.0 -1 ------- null}
r -t 1.21568 -s 2 -d 0 -p ack -e 40 -c 1 -i 35 -a 1 -x {1.0 0.0 14 ------- null}
+ -t 1.21568 -s 0 -d 2 -p tcp -e 1040 -c 1 -i 45 -a 1 -x {0.0 1.0 29 ------- null}
+ -t 1.21568 -s 0 -d 2 -p tcp -e 1040 -c 1 -i 46 -a 1 -x {0.0 1.0 30 ------- null}
- -t 1.21568 -s 0 -d 2 -p tcp -e 1040 -c 1 -i 37 -a 1 -x {0.0 1.0 22 ------- null}
h -t 1.21568 -s 0 -d 2 -p tcp -e 1040 -c 1 -i 37 -a 1 -x {0.0 1.0 -1 ------- null}
r -t 1.21736 -s 0 -d 2 -p tcp -e 1040 -c 1 -i 33 -a 1 -x {0.0 1.0 19 ------- null}
+ -t 1.21736 -s 2 -d 1 -p tcp -e 1040 -c 1 -i 33 -a 1 -x {0.0 1.0 19 ------- null}
- -t 1.21736 -s 2 -d 1 -p tcp -e 1040 -c 1 -i 33 -a 1 -x {0.0 1.0 19 ------- null}
h -t 1.21736 -s 2 -d 1 -p tcp -e 1040 -c 1 -i 33 -a 1 -x {0.0 1.0 -1 ------- null}
r -t 1.21904 -s 2 -d 1 -p tcp -e 1040 -c 1 -i 28 -a 1 -x {0.0 1.0 16 ------- null}
+ -t 1.21904 -s 1 -d 2 -p ack -e 40 -c 1 -i 47 -a 1 -x {1.0 0.0 16 ------- null}
- -t 1.21904 -s 1 -d 2 -p ack -e 40 -c 1 -i 47 -a 1 -x {1.0 0.0 16 ------- null}
h -t 1.21904 -s 1 -d 2 -p ack -e 40 -c 1 -i 47 -a 1 -x {1.0 0.0 -1 ------- null}
- -t 1.21984 -s 0 -d 2 -p tcp -e 1040 -c 1 -i 38 -a 1 -x {0.0 1.0 23 ------- null}
h -t 1.21984 -s 0 -d 2 -p tcp -e 1040 -c 1 -i 38 -a 1 -x {0.0 1.0 -1 ------- null}
r -t 1.22152 -s 0 -d 2 -p tcp -e 1040 -c 1 -i 34 -a 1 -x {0.0 1.0 20 ------- null}
+ -t 1.22152 -s 2 -d 1 -p tcp -e 1040 -c 1 -i 34 -a 1 -x {0.0 1.0 20 ------- null}
- -t 1.22152 -s 2 -d 1 -p tcp -e 1040 -c 1 -i 34 -a 1 -x {0.0 1.0 20 ------- null}
h -t 1.22152 -s 2 -d 1 -p tcp -e 1040 -c 1 -i 34 -a 1 -x {0.0 1.0 -1 ------- null}
r -t 1.2232 -s 2 -d 1 -p tcp -e 1040 -c 1 -i 30 -a 1 -x {0.0 1.0 17 ------- null}
+ -t 1.2232 -s 1 -d 2 -p ack -e 40 -c 1 -i 48 -a 1 -x {1.0 0.0 17 ------- null}
- -t 1.2232 -s 1 -d 2 -p ack -e 40 -c 1 -i 48 -a 1 -x {1.0 0.0 17 ------- null}
h -t 1.2232 -s 1 -d 2 -p ack -e 40 -c 1 -i 48 -a 1 -x {1.0 0.0 -1 ------- null}
- -t 1.224 -s 0 -d 2 -p tcp -e 1040 -c 1 -i 39 -a 1 -x {0.0 1.0 24 ------- null}
h -t 1.224 -s 0 -d 2 -p tcp -e 1040 -c 1 -i 39 -a 1 -x {0.0 1.0 -1 ------- null}
r -t 1.22504 -s 1 -d 2 -p ack -e 40 -c 1 -i 44 -a 1 -x {1.0 0.0 15 ------- null}
+ -t 1.22504 -s 2 -d 0 -p ack -e 40 -c 1 -i 44 -a 1 -x {1.0 0.0 15 ------- null}
- -t 1.22504 -s 2 -d 0 -p ack -e 40 -c 1 -i 44 -a 1 -x {1.0 0.0 15 ------- null}
h -t 1.22504 -s 2 -d 0 -p ack -e 40 -c 1 -i 44 -a 1 -x {1.0 0.0 -1 ------- null}
r -t 1.22568 -s 0 -d 2 -p tcp -e 1040 -c 1 -i 36 -a 1 -x {0.0 1.0 21 ------- null}
+ -t 1.22568 -s 2 -d 1 -p tcp -e 1040 -c 1 -i 36 -a 1 -x {0.0 1.0 21 ------- null}
- -t 1.22568 -s 2 -d 1 -p tcp -e 1040 -c 1 -i 36 -a 1 -x {0.0 1.0 21 ------- null}
h -t 1.22568 -s 2 -d 1 -p tcp -e 1040 -c 1 -i 36 -a 1 -x {0.0 1.0 -1 ------- null}
r -t 1.22736 -s 2 -d 1 -p tcp -e 1040 -c 1 -i 31 -a 1 -x {0.0 1.0 18 ------- null}
+ -t 1.22736 -s 1 -d 2 -p ack -e 40 -c 1 -i 49 -a 1 -x {1.0 0.0 18 ------- null}
- -t 1.22736 -s 1 -d 2 -p ack -e 40 -c 1 -i 49 -a 1 -x {1.0 0.0 18 ------- null}
h -t 1.22736 -s 1 -d 2 -p ack -e 40 -c 1 -i 49 -a 1 -x {1.0 0.0 -1 ------- null}
- -t 1.22816 -s 0 -d 2 -p tcp -e 1040 -c 1 -i 40 -a 1 -x {0.0 1.0 25 ------- null}
h -t 1.22816 -s 0 -d 2 -p tcp -e 1040 -c 1 -i 40 -a 1 -x {0.0 1.0 -1 ------- null}
r -t 1.2292 -s 1 -d 2 -p ack -e 40 -c 1 -i 47 -a 1 -x {1.0 0.0 16 ------- null}
+ -t 1.2292 -s 2 -d 0 -p ack -e 40 -c 1 -i 47 -a 1 -x {1.0 0.0 16 ------- null}
- -t 1.2292 -s 2 -d 0 -p ack -e 40 -c 1 -i 47 -a 1 -x {1.0 0.0 16 ------- null}
h -t 1.2292 -s 2 -d 0 -p ack -e 40 -c 1 -i 47 -a 1 -x {1.0 0.0 -1 ------- null}
r -t 1.22984 -s 0 -d 2 -p tcp -e 1040 -c 1 -i 37 -a 1 -x {0.0 1.0 22 ------- null}
+ -t 1.22984 -s 2 -d 1 -p tcp -e 1040 -c 1 -i 37 -a 1 -x {0.0 1.0 22 ------- null}
- -t 1.22984 -s 2 -d 1 -p tcp -e 1040 -c 1 -i 37 -a 1 -x {0.0 1.0 22 ------- null}
h -t 1.22984 -s 2 -d 1 -p tcp -e 1040 -c 1 -i 37 -a 1 -x {0.0 1.0 -1 ------- null}
r -t 1.23152 -s 2 -d 1 -p tcp -e 1040 -c 1 -i 33 -a 1 -x {0.0 1.0 19 ------- null}
+ -t 1.23152 -s 1 -d 2 -p ack -e 40 -c 1 -i 50 -a 1 -x {1.0 0.0 19 ------- null}
- -t 1.23152 -s 1 -d 2 -p ack -e 40 -c 1 -i 50 -a 1 -x {1.0 0.0 19 ------- null}
h -t 1.23152 -s 1 -d 2 -p ack -e 40 -c 1 -i 50 -a 1 -x {1.0 0.0 -1 ------- null}
- -t 1.23232 -s 0 -d 2 -p tcp -e 1040 -c 1 -i 41 -a 1 -x {0.0 1.0 26 ------- null}
h -t 1.23232 -s 0 -d 2 -p tcp -e 1040 -c 1 -i 41 -a 1 -x {0.0 1.0 -1 ------- null}
r -t 1.23336 -s 1 -d 2 -p ack -e 40 -c 1 -i 48 -a 1 -x {1.0 0.0 17 ------- null}
+ -t 1.23336 -s 2 -d 0 -p ack -e 40 -c 1 -i 48 -a 1 -x {1.0 0.0 17 ------- null}
- -t 1.23336 -s 2 -d 0 -p ack -e 40 -c 1 -i 48 -a 1 -x {1.0 0.0 17 ------- null}
h -t 1.23336 -s 2 -d 0 -p ack -e 40 -c 1 -i 48 -a 1 -x {1.0 0.0 -1 ------- null}
r -t 1.234 -s 0 -d 2 -p tcp -e 1040 -c 1 -i 38 -a 1 -x {0.0 1.0 23 ------- null}
+ -t 1.234 -s 2 -d 1 -p tcp -e 1040 -c 1 -i 38 -a 1 -x {0.0 1.0 23 ------- null}
- -t 1.234 -s 2 -d 1 -p tcp -e 1040 -c 1 -i 38 -a 1 -x {0.0 1.0 23 ------- null}
h -t 1.234 -s 2 -d 1 -p tcp -e 1040 -c 1 -i 38 -a 1 -x {0.0 1.0 -1 ------- null}
r -t 1.2352 -s 2 -d 0 -p ack -e 40 -c 1 -i 44 -a 1 -x {1.0 0.0 15 ------- null}
+ -t 1.2352 -s 0 -d 2 -p tcp -e 1040 -c 1 -i 51 -a 1 -x {0.0 1.0 31 ------- null}
+ -t 1.2352 -s 0 -d 2 -p tcp -e 1040 -c 1 -i 52 -a 1 -x {0.0 1.0 32 ------- null}
r -t 1.23568 -s 2 -d 1 -p tcp -e 1040 -c 1 -i 34 -a 1 -x {0.0 1.0 20 ------- null}
+ -t 1.23568 -s 1 -d 2 -p ack -e 40 -c 1 -i 53 -a 1 -x {1.0 0.0 20 ------- null}
- -t 1.23568 -s 1 -d 2 -p ack -e 40 -c 1 -i 53 -a 1 -x {1.0 0.0 20 ------- null}
h -t 1.23568 -s 1 -d 2 -p ack -e 40 -c 1 -i 53 -a 1 -x {1.0 0.0 -1 ------- null}
- -t 1.23648 -s 0 -d 2 -p tcp -e 1040 -c 1 -i 42 -a 1 -x {0.0 1.0 27 ------- null}
h -t 1.23648 -s 0 -d 2 -p tcp -e 1040 -c 1 -i 42 -a 1 -x {0.0 1.0 -1 ------- null}
r -t 1.23752 -s 1 -d 2 -p ack -e 40 -c 1 -i 49 -a 1 -x {1.0 0.0 18 ------- null}
+ -t 1.23752 -s 2 -d 0 -p ack -e 40 -c 1 -i 49 -a 1 -x {1.0 0.0 18 ------- null}
- -t 1.23752 -s 2 -d 0 -p ack -e 40 -c 1 -i 49 -a 1 -x {1.0 0.0 18 ------- null}
h -t 1.23752 -s 2 -d 0 -p ack -e 40 -c 1 -i 49 -a 1 -x {1.0 0.0 -1 ------- null}
r -t 1.23816 -s 0 -d 2 -p tcp -e 1040 -c 1 -i 39 -a 1 -x {0.0 1.0 24 ------- null}